 Title="after_inviscid"
 Variables=x,y,e1,e2,e3,e4,e5
 zone T="           1 ",i=          25 ,j=          25
    0.0000000E+00    0.0000000E+00   -0.2400000E+03   -0.4800000E+03   -0.2400000E+03    0.0000000E+00   -0.9600000E+03
    0.1526257E-01    0.0000000E+00    0.4185617E-07    0.4185617E-07   -0.2400000E+03    0.0000000E+00    0.1674243E-06
    0.5091983E-01    0.0000000E+00    0.5922080E-07    0.5922080E-07   -0.2400000E+03    0.0000000E+00    0.2368835E-06
    0.1062715E+00    0.0000000E+00    0.1009719E-06    0.1009719E-06   -0.2400000E+03    0.0000000E+00    0.4038872E-06
    0.1804044E+00    0.0000000E+00    0.2043132E-06    0.2043132E-06   -0.2400000E+03    0.0000000E+00    0.8172530E-06
    0.2721004E+00    0.0000000E+00    0.4810216E-06    0.4810216E-06   -0.2400000E+03    0.0000000E+00    0.1924086E-05
    0.3798537E+00    0.0000000E+00    0.1287091E-05    0.1287091E-05   -0.2400000E+03    0.0000000E+00    0.5148365E-05
    0.5018948E+00    0.0000000E+00    0.3813000E-05    0.3813000E-05   -0.2400000E+03    0.0000000E+00    0.1525200E-04
    0.6362199E+00    0.0000000E+00    0.1216389E-04    0.1216389E-04   -0.2400000E+03    0.0000000E+00    0.4865557E-04
    0.7806232E+00    0.0000000E+00    0.4061986E-04    0.4061986E-04   -0.2400000E+03    0.0000000E+00    0.1624794E-03
    0.9327337E+00    0.0000000E+00    0.1381066E-03    0.1381066E-03   -0.2400000E+03    0.0000000E+00    0.5524265E-03
    0.1090054E+01    0.0000000E+00    0.4657056E-03    0.4657056E-03   -0.2400000E+03    0.0000000E+00    0.1862822E-02
    0.1250000E+01    0.0000000E+00    0.1520761E-02    0.1520761E-02   -0.2400000E+03    0.0000000E+00    0.6083044E-02
    0.1409946E+01    0.0000000E+00    0.4709759E-02    0.4709759E-02   -0.2400000E+03    0.0000000E+00    0.1883904E-01
    0.1567266E+01    0.0000000E+00    0.1359431E-01    0.1359431E-01   -0.2400000E+03    0.0000000E+00    0.5437725E-01
    0.1719377E+01    0.0000000E+00    0.3607139E-01    0.3607139E-01   -0.2400000E+03    0.0000000E+00    0.1442856E+00
    0.1863780E+01    0.0000000E+00    0.8710360E-01    0.8710360E-01   -0.2400000E+03    0.0000000E+00    0.3484144E+00
    0.1998105E+01    0.0000000E+00    0.1901525E+00    0.1901525E+00   -0.2400001E+03    0.0000000E+00    0.7606100E+00
    0.2120146E+01    0.0000000E+00    0.3739557E+00    0.3739557E+00   -0.2400006E+03    0.0000000E+00    0.1495823E+01
    0.2227900E+01    0.0000000E+00    0.6618371E+00    0.6618371E+00   -0.2400018E+03    0.0000000E+00    0.2647351E+01
    0.2319596E+01    0.0000000E+00    0.1055062E+01    0.1055062E+01   -0.2400045E+03    0.0000000E+00    0.4220256E+01
    0.2393728E+01    0.0000000E+00    0.1518113E+01    0.1518113E+01   -0.2400092E+03    0.0000000E+00    0.6072480E+01
    0.2449080E+01    0.0000000E+00    0.1976762E+01    0.1976762E+01   -0.2400157E+03    0.0000000E+00    0.7907108E+01
    0.2484737E+01    0.0000000E+00    0.2335039E+01    0.2335039E+01   -0.2400218E+03    0.0000000E+00    0.9340257E+01
    0.2500000E+01    0.0000000E+00    0.2425048E+03    0.4825037E+03   -0.2425306E+03    0.0000000E+00    0.9700312E+03
    0.0000000E+00    0.1526257E-01   -0.2400000E+03   -0.4800000E+03   -0.3604148E-07    0.0000000E+00   -0.9600000E+03
    0.1526257E-01    0.1526257E-01    0.0000000E+00    0.0000000E+00    0.0000000E+00    0.0000000E+00    0.0000000E+00
    0.5091983E-01    0.1526257E-01    0.0000000E+00    0.0000000E+00    0.0000000E+00    0.0000000E+00    0.0000000E+00
    0.1062715E+00    0.1526257E-01    0.0000000E+00    0.0000000E+00    0.0000000E+00    0.0000000E+00    0.0000000E+00
    0.1804044E+00    0.1526257E-01    0.0000000E+00    0.0000000E+00    0.0000000E+00    0.0000000E+00    0.0000000E+00
    0.2721004E+00    0.1526257E-01    0.0000000E+00    0.0000000E+00    0.0000000E+00    0.0000000E+00    0.0000000E+00
    0.3798537E+00    0.1526257E-01    0.0000000E+00    0.0000000E+00    0.0000000E+00    0.0000000E+00    0.0000000E+00
    0.5018948E+00    0.1526257E-01    0.0000000E+00    0.0000000E+00    0.0000000E+00    0.0000000E+00    0.0000000E+00
    0.6362199E+00    0.1526257E-01    0.0000000E+00    0.0000000E+00    0.0000000E+00    0.0000000E+00    0.0000000E+00
    0.7806232E+00    0.1526257E-01    0.0000000E+00    0.0000000E+00    0.0000000E+00    0.0000000E+00    0.0000000E+00
    0.9327337E+00    0.1526257E-01    0.0000000E+00    0.0000000E+00    0.0000000E+00    0.0000000E+00    0.0000000E+00
    0.1090054E+01    0.1526257E-01    0.0000000E+00    0.0000000E+00    0.0000000E+00    0.0000000E+00    0.0000000E+00
    0.1250000E+01    0.1526257E-01    0.0000000E+00    0.0000000E+00    0.0000000E+00    0.0000000E+00    0.0000000E+00
    0.1409946E+01    0.1526257E-01    0.0000000E+00    0.0000000E+00    0.0000000E+00    0.0000000E+00    0.0000000E+00
    0.1567266E+01    0.1526257E-01    0.0000000E+00    0.0000000E+00    0.0000000E+00    0.0000000E+00    0.0000000E+00
    0.1719377E+01    0.1526257E-01    0.0000000E+00    0.0000000E+00    0.0000000E+00    0.0000000E+00    0.0000000E+00
    0.1863780E+01    0.1526257E-01    0.0000000E+00    0.0000000E+00    0.0000000E+00    0.0000000E+00    0.0000000E+00
    0.1998105E+01    0.1526257E-01    0.0000000E+00    0.0000000E+00    0.0000000E+00    0.0000000E+00    0.0000000E+00
    0.2120146E+01    0.1526257E-01    0.0000000E+00    0.0000000E+00    0.0000000E+00    0.0000000E+00    0.0000000E+00
    0.2227900E+01    0.1526257E-01    0.0000000E+00    0.0000000E+00    0.0000000E+00    0.0000000E+00    0.0000000E+00
    0.2319596E+01    0.1526257E-01    0.0000000E+00    0.0000000E+00    0.0000000E+00    0.0000000E+00    0.0000000E+00
    0.2393728E+01    0.1526257E-01    0.0000000E+00    0.0000000E+00    0.0000000E+00    0.0000000E+00    0.0000000E+00
    0.2449080E+01    0.1526257E-01    0.0000000E+00    0.0000000E+00    0.0000000E+00    0.0000000E+00    0.0000000E+00
    0.2484737E+01    0.1526257E-01    0.0000000E+00    0.0000000E+00    0.0000000E+00    0.0000000E+00    0.0000000E+00
    0.2500000E+01    0.1526257E-01    0.2399840E+03    0.4799676E+03   -0.2504754E+01    0.0000000E+00    0.9599326E+03
    0.0000000E+00    0.5091983E-01   -0.2400000E+03   -0.4800000E+03   -0.3595653E-07    0.0000000E+00   -0.9600000E+03
    0.1526257E-01    0.5091983E-01    0.0000000E+00    0.0000000E+00    0.0000000E+00    0.0000000E+00    0.0000000E+00
    0.5091983E-01    0.5091983E-01    0.0000000E+00    0.0000000E+00    0.0000000E+00    0.0000000E+00    0.0000000E+00
    0.1062715E+00    0.5091983E-01    0.0000000E+00    0.0000000E+00    0.0000000E+00    0.0000000E+00    0.0000000E+00
    0.1804044E+00    0.5091983E-01    0.0000000E+00    0.0000000E+00    0.0000000E+00    0.0000000E+00    0.0000000E+00
    0.2721004E+00    0.5091983E-01    0.0000000E+00    0.0000000E+00    0.0000000E+00    0.0000000E+00    0.0000000E+00
    0.3798537E+00    0.5091983E-01    0.0000000E+00    0.0000000E+00    0.0000000E+00    0.0000000E+00    0.0000000E+00
    0.5018948E+00    0.5091983E-01    0.0000000E+00    0.0000000E+00    0.0000000E+00    0.0000000E+00    0.0000000E+00
    0.6362199E+00    0.5091983E-01    0.0000000E+00    0.0000000E+00    0.0000000E+00    0.0000000E+00    0.0000000E+00
    0.7806232E+00    0.5091983E-01    0.0000000E+00    0.0000000E+00    0.0000000E+00    0.0000000E+00    0.0000000E+00
    0.9327337E+00    0.5091983E-01    0.0000000E+00    0.0000000E+00    0.0000000E+00    0.0000000E+00    0.0000000E+00
    0.1090054E+01    0.5091983E-01    0.0000000E+00    0.0000000E+00    0.0000000E+00    0.0000000E+00    0.0000000E+00
    0.1250000E+01    0.5091983E-01    0.0000000E+00    0.0000000E+00    0.0000000E+00    0.0000000E+00    0.0000000E+00
    0.1409946E+01    0.5091983E-01    0.0000000E+00    0.0000000E+00    0.0000000E+00    0.0000000E+00    0.0000000E+00
    0.1567266E+01    0.5091983E-01    0.0000000E+00    0.0000000E+00    0.0000000E+00    0.0000000E+00    0.0000000E+00
    0.1719377E+01    0.5091983E-01    0.0000000E+00    0.0000000E+00    0.0000000E+00    0.0000000E+00    0.0000000E+00
    0.1863780E+01    0.5091983E-01    0.0000000E+00    0.0000000E+00    0.0000000E+00    0.0000000E+00    0.0000000E+00
    0.1998105E+01    0.5091983E-01    0.0000000E+00    0.0000000E+00    0.0000000E+00    0.0000000E+00    0.0000000E+00
    0.2120146E+01    0.5091983E-01    0.0000000E+00    0.0000000E+00    0.0000000E+00    0.0000000E+00    0.0000000E+00
    0.2227900E+01    0.5091983E-01    0.0000000E+00    0.0000000E+00    0.0000000E+00    0.0000000E+00    0.0000000E+00
    0.2319596E+01    0.5091983E-01    0.0000000E+00    0.0000000E+00    0.0000000E+00    0.0000000E+00    0.0000000E+00
    0.2393728E+01    0.5091983E-01    0.0000000E+00    0.0000000E+00    0.0000000E+00    0.0000000E+00    0.0000000E+00
    0.2449080E+01    0.5091983E-01    0.0000000E+00    0.0000000E+00    0.0000000E+00    0.0000000E+00    0.0000000E+00
    0.2484737E+01    0.5091983E-01    0.0000000E+00    0.0000000E+00    0.0000000E+00    0.0000000E+00    0.0000000E+00
    0.2500000E+01    0.5091983E-01    0.2399484E+03    0.4798964E+03   -0.2498480E+01    0.0000000E+00    0.9597545E+03
    0.0000000E+00    0.1062715E+00   -0.2400000E+03   -0.4800000E+03   -0.3564504E-07    0.0000000E+00   -0.9600000E+03
    0.1526257E-01    0.1062715E+00    0.0000000E+00    0.0000000E+00    0.0000000E+00    0.0000000E+00    0.0000000E+00
    0.5091983E-01    0.1062715E+00    0.0000000E+00    0.0000000E+00    0.0000000E+00    0.0000000E+00    0.0000000E+00
    0.1062715E+00    0.1062715E+00    0.0000000E+00    0.0000000E+00    0.0000000E+00    0.0000000E+00    0.0000000E+00
    0.1804044E+00    0.1062715E+00    0.0000000E+00    0.0000000E+00    0.0000000E+00    0.0000000E+00    0.0000000E+00
    0.2721004E+00    0.1062715E+00    0.0000000E+00    0.0000000E+00    0.0000000E+00    0.0000000E+00    0.0000000E+00
    0.3798537E+00    0.1062715E+00    0.0000000E+00    0.0000000E+00    0.0000000E+00    0.0000000E+00    0.0000000E+00
    0.5018948E+00    0.1062715E+00    0.0000000E+00    0.0000000E+00    0.0000000E+00    0.0000000E+00    0.0000000E+00
    0.6362199E+00    0.1062715E+00    0.0000000E+00    0.0000000E+00    0.0000000E+00    0.0000000E+00    0.0000000E+00
    0.7806232E+00    0.1062715E+00    0.0000000E+00    0.0000000E+00    0.0000000E+00    0.0000000E+00    0.0000000E+00
    0.9327337E+00    0.1062715E+00    0.0000000E+00    0.0000000E+00    0.0000000E+00    0.0000000E+00    0.0000000E+00
    0.1090054E+01    0.1062715E+00    0.0000000E+00    0.0000000E+00    0.0000000E+00    0.0000000E+00    0.0000000E+00
    0.1250000E+01    0.1062715E+00    0.0000000E+00    0.0000000E+00    0.0000000E+00    0.0000000E+00    0.0000000E+00
    0.1409946E+01    0.1062715E+00    0.0000000E+00    0.0000000E+00    0.0000000E+00    0.0000000E+00    0.0000000E+00
    0.1567266E+01    0.1062715E+00    0.0000000E+00    0.0000000E+00    0.0000000E+00    0.0000000E+00    0.0000000E+00
    0.1719377E+01    0.1062715E+00    0.0000000E+00    0.0000000E+00    0.0000000E+00    0.0000000E+00    0.0000000E+00
    0.1863780E+01    0.1062715E+00    0.0000000E+00    0.0000000E+00    0.0000000E+00    0.0000000E+00    0.0000000E+00
    0.1998105E+01    0.1062715E+00    0.0000000E+00    0.0000000E+00    0.0000000E+00    0.0000000E+00    0.0000000E+00
    0.2120146E+01    0.1062715E+00    0.0000000E+00    0.0000000E+00    0.0000000E+00    0.0000000E+00    0.0000000E+00
    0.2227900E+01    0.1062715E+00    0.0000000E+00    0.0000000E+00    0.0000000E+00    0.0000000E+00    0.0000000E+00
    0.2319596E+01    0.1062715E+00    0.0000000E+00    0.0000000E+00    0.0000000E+00    0.0000000E+00    0.0000000E+00
    0.2393728E+01    0.1062715E+00    0.0000000E+00    0.0000000E+00    0.0000000E+00    0.0000000E+00    0.0000000E+00
    0.2449080E+01    0.1062715E+00    0.0000000E+00    0.0000000E+00    0.0000000E+00    0.0000000E+00    0.0000000E+00
    0.2484737E+01    0.1062715E+00    0.0000000E+00    0.0000000E+00    0.0000000E+00    0.0000000E+00    0.0000000E+00
    0.2500000E+01    0.1062715E+00    0.2398940E+03    0.4797877E+03   -0.2476274E+01    0.0000000E+00    0.9594824E+03
    0.0000000E+00    0.1804044E+00   -0.2400000E+03   -0.4800000E+03   -0.3489550E-07    0.0000000E+00   -0.9600000E+03
    0.1526257E-01    0.1804044E+00    0.0000000E+00    0.0000000E+00    0.0000000E+00    0.0000000E+00    0.0000000E+00
    0.5091983E-01    0.1804044E+00    0.0000000E+00    0.0000000E+00    0.0000000E+00    0.0000000E+00    0.0000000E+00
    0.1062715E+00    0.1804044E+00    0.0000000E+00    0.0000000E+00    0.0000000E+00    0.0000000E+00    0.0000000E+00
    0.1804044E+00    0.1804044E+00    0.0000000E+00    0.0000000E+00    0.0000000E+00    0.0000000E+00    0.0000000E+00
    0.2721004E+00    0.1804044E+00    0.0000000E+00    0.0000000E+00    0.0000000E+00    0.0000000E+00    0.0000000E+00
    0.3798537E+00    0.1804044E+00    0.0000000E+00    0.0000000E+00    0.0000000E+00    0.0000000E+00    0.0000000E+00
    0.5018948E+00    0.1804044E+00    0.0000000E+00    0.0000000E+00    0.0000000E+00    0.0000000E+00    0.0000000E+00
    0.6362199E+00    0.1804044E+00    0.0000000E+00    0.0000000E+00    0.0000000E+00    0.0000000E+00    0.0000000E+00
    0.7806232E+00    0.1804044E+00    0.0000000E+00    0.0000000E+00    0.0000000E+00    0.0000000E+00    0.0000000E+00
    0.9327337E+00    0.1804044E+00    0.0000000E+00    0.0000000E+00    0.0000000E+00    0.0000000E+00    0.0000000E+00
    0.1090054E+01    0.1804044E+00    0.0000000E+00    0.0000000E+00    0.0000000E+00    0.0000000E+00    0.0000000E+00
    0.1250000E+01    0.1804044E+00    0.0000000E+00    0.0000000E+00    0.0000000E+00    0.0000000E+00    0.0000000E+00
    0.1409946E+01    0.1804044E+00    0.0000000E+00    0.0000000E+00    0.0000000E+00    0.0000000E+00    0.0000000E+00
    0.1567266E+01    0.1804044E+00    0.0000000E+00    0.0000000E+00    0.0000000E+00    0.0000000E+00    0.0000000E+00
    0.1719377E+01    0.1804044E+00    0.0000000E+00    0.0000000E+00    0.0000000E+00    0.0000000E+00    0.0000000E+00
    0.1863780E+01    0.1804044E+00    0.0000000E+00    0.0000000E+00    0.0000000E+00    0.0000000E+00    0.0000000E+00
    0.1998105E+01    0.1804044E+00    0.0000000E+00    0.0000000E+00    0.0000000E+00    0.0000000E+00    0.0000000E+00
    0.2120146E+01    0.1804044E+00    0.0000000E+00    0.0000000E+00    0.0000000E+00    0.0000000E+00    0.0000000E+00
    0.2227900E+01    0.1804044E+00    0.0000000E+00    0.0000000E+00    0.0000000E+00    0.0000000E+00    0.0000000E+00
    0.2319596E+01    0.1804044E+00    0.0000000E+00    0.0000000E+00    0.0000000E+00    0.0000000E+00    0.0000000E+00
    0.2393728E+01    0.1804044E+00    0.0000000E+00    0.0000000E+00    0.0000000E+00    0.0000000E+00    0.0000000E+00
    0.2449080E+01    0.1804044E+00    0.0000000E+00    0.0000000E+00    0.0000000E+00    0.0000000E+00    0.0000000E+00
    0.2484737E+01    0.1804044E+00    0.0000000E+00    0.0000000E+00    0.0000000E+00    0.0000000E+00    0.0000000E+00
    0.2500000E+01    0.1804044E+00    0.2398243E+03    0.4796484E+03   -0.2423499E+01    0.0000000E+00    0.9591336E+03
    0.0000000E+00    0.2721004E+00   -0.2400000E+03   -0.4800000E+03   -0.3347721E-07    0.0000000E+00   -0.9600000E+03
    0.1526257E-01    0.2721004E+00    0.0000000E+00    0.0000000E+00    0.0000000E+00    0.0000000E+00    0.0000000E+00
    0.5091983E-01    0.2721004E+00    0.0000000E+00    0.0000000E+00    0.0000000E+00    0.0000000E+00    0.0000000E+00
    0.1062715E+00    0.2721004E+00    0.0000000E+00    0.0000000E+00    0.0000000E+00    0.0000000E+00    0.0000000E+00
    0.1804044E+00    0.2721004E+00    0.0000000E+00    0.0000000E+00    0.0000000E+00    0.0000000E+00    0.0000000E+00
    0.2721004E+00    0.2721004E+00    0.0000000E+00    0.0000000E+00    0.0000000E+00    0.0000000E+00    0.0000000E+00
    0.3798537E+00    0.2721004E+00    0.0000000E+00    0.0000000E+00    0.0000000E+00    0.0000000E+00    0.0000000E+00
    0.5018948E+00    0.2721004E+00    0.0000000E+00    0.0000000E+00    0.0000000E+00    0.0000000E+00    0.0000000E+00
    0.6362199E+00    0.2721004E+00    0.0000000E+00    0.0000000E+00    0.0000000E+00    0.0000000E+00    0.0000000E+00
    0.7806232E+00    0.2721004E+00    0.0000000E+00    0.0000000E+00    0.0000000E+00    0.0000000E+00    0.0000000E+00
    0.9327337E+00    0.2721004E+00    0.0000000E+00    0.0000000E+00    0.0000000E+00    0.0000000E+00    0.0000000E+00
    0.1090054E+01    0.2721004E+00    0.0000000E+00    0.0000000E+00    0.0000000E+00    0.0000000E+00    0.0000000E+00
    0.1250000E+01    0.2721004E+00    0.0000000E+00    0.0000000E+00    0.0000000E+00    0.0000000E+00    0.0000000E+00
    0.1409946E+01    0.2721004E+00    0.0000000E+00    0.0000000E+00    0.0000000E+00    0.0000000E+00    0.0000000E+00
    0.1567266E+01    0.2721004E+00    0.0000000E+00    0.0000000E+00    0.0000000E+00    0.0000000E+00    0.0000000E+00
    0.1719377E+01    0.2721004E+00    0.0000000E+00    0.0000000E+00    0.0000000E+00    0.0000000E+00    0.0000000E+00
    0.1863780E+01    0.2721004E+00    0.0000000E+00    0.0000000E+00    0.0000000E+00    0.0000000E+00    0.0000000E+00
    0.1998105E+01    0.2721004E+00    0.0000000E+00    0.0000000E+00    0.0000000E+00    0.0000000E+00    0.0000000E+00
    0.2120146E+01    0.2721004E+00    0.0000000E+00    0.0000000E+00    0.0000000E+00    0.0000000E+00    0.0000000E+00
    0.2227900E+01    0.2721004E+00    0.0000000E+00    0.0000000E+00    0.0000000E+00    0.0000000E+00    0.0000000E+00
    0.2319596E+01    0.2721004E+00    0.0000000E+00    0.0000000E+00    0.0000000E+00    0.0000000E+00    0.0000000E+00
    0.2393728E+01    0.2721004E+00    0.0000000E+00    0.0000000E+00    0.0000000E+00    0.0000000E+00    0.0000000E+00
    0.2449080E+01    0.2721004E+00    0.0000000E+00    0.0000000E+00    0.0000000E+00    0.0000000E+00    0.0000000E+00
    0.2484737E+01    0.2721004E+00    0.0000000E+00    0.0000000E+00    0.0000000E+00    0.0000000E+00    0.0000000E+00
    0.2500000E+01    0.2721004E+00    0.2397461E+03    0.4794922E+03   -0.2324241E+01    0.0000000E+00    0.9587420E+03
    0.0000000E+00    0.3798537E+00   -0.2400000E+03   -0.4800000E+03   -0.3120613E-07    0.0000000E+00   -0.9600000E+03
    0.1526257E-01    0.3798537E+00    0.0000000E+00    0.0000000E+00    0.0000000E+00    0.0000000E+00    0.0000000E+00
    0.5091983E-01    0.3798537E+00    0.0000000E+00    0.0000000E+00    0.0000000E+00    0.0000000E+00    0.0000000E+00
    0.1062715E+00    0.3798537E+00    0.0000000E+00    0.0000000E+00    0.0000000E+00    0.0000000E+00    0.0000000E+00
    0.1804044E+00    0.3798537E+00    0.0000000E+00    0.0000000E+00    0.0000000E+00    0.0000000E+00    0.0000000E+00
    0.2721004E+00    0.3798537E+00    0.0000000E+00    0.0000000E+00    0.0000000E+00    0.0000000E+00    0.0000000E+00
    0.3798537E+00    0.3798537E+00    0.0000000E+00    0.0000000E+00    0.0000000E+00    0.0000000E+00    0.0000000E+00
    0.5018948E+00    0.3798537E+00    0.0000000E+00    0.0000000E+00    0.0000000E+00    0.0000000E+00    0.0000000E+00
    0.6362199E+00    0.3798537E+00    0.0000000E+00    0.0000000E+00    0.0000000E+00    0.0000000E+00    0.0000000E+00
    0.7806232E+00    0.3798537E+00    0.0000000E+00    0.0000000E+00    0.0000000E+00    0.0000000E+00    0.0000000E+00
    0.9327337E+00    0.3798537E+00    0.0000000E+00    0.0000000E+00    0.0000000E+00    0.0000000E+00    0.0000000E+00
    0.1090054E+01    0.3798537E+00    0.0000000E+00    0.0000000E+00    0.0000000E+00    0.0000000E+00    0.0000000E+00
    0.1250000E+01    0.3798537E+00    0.0000000E+00    0.0000000E+00    0.0000000E+00    0.0000000E+00    0.0000000E+00
    0.1409946E+01    0.3798537E+00    0.0000000E+00    0.0000000E+00    0.0000000E+00    0.0000000E+00    0.0000000E+00
    0.1567266E+01    0.3798537E+00    0.0000000E+00    0.0000000E+00    0.0000000E+00    0.0000000E+00    0.0000000E+00
    0.1719377E+01    0.3798537E+00    0.0000000E+00    0.0000000E+00    0.0000000E+00    0.0000000E+00    0.0000000E+00
    0.1863780E+01    0.3798537E+00    0.0000000E+00    0.0000000E+00    0.0000000E+00    0.0000000E+00    0.0000000E+00
    0.1998105E+01    0.3798537E+00    0.0000000E+00    0.0000000E+00    0.0000000E+00    0.0000000E+00    0.0000000E+00
    0.2120146E+01    0.3798537E+00    0.0000000E+00    0.0000000E+00    0.0000000E+00    0.0000000E+00    0.0000000E+00
    0.2227900E+01    0.3798537E+00    0.0000000E+00    0.0000000E+00    0.0000000E+00    0.0000000E+00    0.0000000E+00
    0.2319596E+01    0.3798537E+00    0.0000000E+00    0.0000000E+00    0.0000000E+00    0.0000000E+00    0.0000000E+00
    0.2393728E+01    0.3798537E+00    0.0000000E+00    0.0000000E+00    0.0000000E+00    0.0000000E+00    0.0000000E+00
    0.2449080E+01    0.3798537E+00    0.0000000E+00    0.0000000E+00    0.0000000E+00    0.0000000E+00    0.0000000E+00
    0.2484737E+01    0.3798537E+00    0.0000000E+00    0.0000000E+00    0.0000000E+00    0.0000000E+00    0.0000000E+00
    0.2500000E+01    0.3798537E+00    0.2396699E+03    0.4793400E+03   -0.2165877E+01    0.0000000E+00    0.9583597E+03
    0.0000000E+00    0.5018948E+00   -0.2400000E+03   -0.4800000E+03   -0.2802243E-07    0.0000000E+00   -0.9600000E+03
    0.1526257E-01    0.5018948E+00    0.0000000E+00    0.0000000E+00    0.0000000E+00    0.0000000E+00    0.0000000E+00
    0.5091983E-01    0.5018948E+00    0.0000000E+00    0.0000000E+00    0.0000000E+00    0.0000000E+00    0.0000000E+00
    0.1062715E+00    0.5018948E+00    0.0000000E+00    0.0000000E+00    0.0000000E+00    0.0000000E+00    0.0000000E+00
    0.1804044E+00    0.5018948E+00    0.0000000E+00    0.0000000E+00    0.0000000E+00    0.0000000E+00    0.0000000E+00
    0.2721004E+00    0.5018948E+00    0.0000000E+00    0.0000000E+00    0.0000000E+00    0.0000000E+00    0.0000000E+00
    0.3798537E+00    0.5018948E+00    0.0000000E+00    0.0000000E+00    0.0000000E+00    0.0000000E+00    0.0000000E+00
    0.5018948E+00    0.5018948E+00    0.0000000E+00    0.0000000E+00    0.0000000E+00    0.0000000E+00    0.0000000E+00
    0.6362199E+00    0.5018948E+00    0.0000000E+00    0.0000000E+00    0.0000000E+00    0.0000000E+00    0.0000000E+00
    0.7806232E+00    0.5018948E+00    0.0000000E+00    0.0000000E+00    0.0000000E+00    0.0000000E+00    0.0000000E+00
    0.9327337E+00    0.5018948E+00    0.0000000E+00    0.0000000E+00    0.0000000E+00    0.0000000E+00    0.0000000E+00
    0.1090054E+01    0.5018948E+00    0.0000000E+00    0.0000000E+00    0.0000000E+00    0.0000000E+00    0.0000000E+00
    0.1250000E+01    0.5018948E+00    0.0000000E+00    0.0000000E+00    0.0000000E+00    0.0000000E+00    0.0000000E+00
    0.1409946E+01    0.5018948E+00    0.0000000E+00    0.0000000E+00    0.0000000E+00    0.0000000E+00    0.0000000E+00
    0.1567266E+01    0.5018948E+00    0.0000000E+00    0.0000000E+00    0.0000000E+00    0.0000000E+00    0.0000000E+00
    0.1719377E+01    0.5018948E+00    0.0000000E+00    0.0000000E+00    0.0000000E+00    0.0000000E+00    0.0000000E+00
    0.1863780E+01    0.5018948E+00    0.0000000E+00    0.0000000E+00    0.0000000E+00    0.0000000E+00    0.0000000E+00
    0.1998105E+01    0.5018948E+00    0.0000000E+00    0.0000000E+00    0.0000000E+00    0.0000000E+00    0.0000000E+00
    0.2120146E+01    0.5018948E+00    0.0000000E+00    0.0000000E+00    0.0000000E+00    0.0000000E+00    0.0000000E+00
    0.2227900E+01    0.5018948E+00    0.0000000E+00    0.0000000E+00    0.0000000E+00    0.0000000E+00    0.0000000E+00
    0.2319596E+01    0.5018948E+00    0.0000000E+00    0.0000000E+00    0.0000000E+00    0.0000000E+00    0.0000000E+00
    0.2393728E+01    0.5018948E+00    0.0000000E+00    0.0000000E+00    0.0000000E+00    0.0000000E+00    0.0000000E+00
    0.2449080E+01    0.5018948E+00    0.0000000E+00    0.0000000E+00    0.0000000E+00    0.0000000E+00    0.0000000E+00
    0.2484737E+01    0.5018948E+00    0.0000000E+00    0.0000000E+00    0.0000000E+00    0.0000000E+00    0.0000000E+00
    0.2500000E+01    0.5018948E+00    0.2396086E+03    0.4792176E+03   -0.1944412E+01    0.0000000E+00    0.9580514E+03
    0.0000000E+00    0.6362199E+00   -0.2400000E+03   -0.4800000E+03   -0.2404983E-07    0.0000000E+00   -0.9600000E+03
    0.1526257E-01    0.6362199E+00    0.0000000E+00    0.0000000E+00    0.0000000E+00    0.0000000E+00    0.0000000E+00
    0.5091983E-01    0.6362199E+00    0.0000000E+00    0.0000000E+00    0.0000000E+00    0.0000000E+00    0.0000000E+00
    0.1062715E+00    0.6362199E+00    0.0000000E+00    0.0000000E+00    0.0000000E+00    0.0000000E+00    0.0000000E+00
    0.1804044E+00    0.6362199E+00    0.0000000E+00    0.0000000E+00    0.0000000E+00    0.0000000E+00    0.0000000E+00
    0.2721004E+00    0.6362199E+00    0.0000000E+00    0.0000000E+00    0.0000000E+00    0.0000000E+00    0.0000000E+00
    0.3798537E+00    0.6362199E+00    0.0000000E+00    0.0000000E+00    0.0000000E+00    0.0000000E+00    0.0000000E+00
    0.5018948E+00    0.6362199E+00    0.0000000E+00    0.0000000E+00    0.0000000E+00    0.0000000E+00    0.0000000E+00
    0.6362199E+00    0.6362199E+00    0.0000000E+00    0.0000000E+00    0.0000000E+00    0.0000000E+00    0.0000000E+00
    0.7806232E+00    0.6362199E+00    0.0000000E+00    0.0000000E+00    0.0000000E+00    0.0000000E+00    0.0000000E+00
    0.9327337E+00    0.6362199E+00    0.0000000E+00    0.0000000E+00    0.0000000E+00    0.0000000E+00    0.0000000E+00
    0.1090054E+01    0.6362199E+00    0.0000000E+00    0.0000000E+00    0.0000000E+00    0.0000000E+00    0.0000000E+00
    0.1250000E+01    0.6362199E+00    0.0000000E+00    0.0000000E+00    0.0000000E+00    0.0000000E+00    0.0000000E+00
    0.1409946E+01    0.6362199E+00    0.0000000E+00    0.0000000E+00    0.0000000E+00    0.0000000E+00    0.0000000E+00
    0.1567266E+01    0.6362199E+00    0.0000000E+00    0.0000000E+00    0.0000000E+00    0.0000000E+00    0.0000000E+00
    0.1719377E+01    0.6362199E+00    0.0000000E+00    0.0000000E+00    0.0000000E+00    0.0000000E+00    0.0000000E+00
    0.1863780E+01    0.6362199E+00    0.0000000E+00    0.0000000E+00    0.0000000E+00    0.0000000E+00    0.0000000E+00
    0.1998105E+01    0.6362199E+00    0.0000000E+00    0.0000000E+00    0.0000000E+00    0.0000000E+00    0.0000000E+00
    0.2120146E+01    0.6362199E+00    0.0000000E+00    0.0000000E+00    0.0000000E+00    0.0000000E+00    0.0000000E+00
    0.2227900E+01    0.6362199E+00    0.0000000E+00    0.0000000E+00    0.0000000E+00    0.0000000E+00    0.0000000E+00
    0.2319596E+01    0.6362199E+00    0.0000000E+00    0.0000000E+00    0.0000000E+00    0.0000000E+00    0.0000000E+00
    0.2393728E+01    0.6362199E+00    0.0000000E+00    0.0000000E+00    0.0000000E+00    0.0000000E+00    0.0000000E+00
    0.2449080E+01    0.6362199E+00    0.0000000E+00    0.0000000E+00    0.0000000E+00    0.0000000E+00    0.0000000E+00
    0.2484737E+01    0.6362199E+00    0.0000000E+00    0.0000000E+00    0.0000000E+00    0.0000000E+00    0.0000000E+00
    0.2500000E+01    0.6362199E+00    0.2395743E+03    0.4791492E+03   -0.1668524E+01    0.0000000E+00    0.9578783E+03
    0.0000000E+00    0.7806232E+00   -0.2400000E+03   -0.4800000E+03   -0.1960003E-07    0.0000000E+00   -0.9600000E+03
    0.1526257E-01    0.7806232E+00    0.0000000E+00    0.0000000E+00    0.0000000E+00    0.0000000E+00    0.0000000E+00
    0.5091983E-01    0.7806232E+00    0.0000000E+00    0.0000000E+00    0.0000000E+00    0.0000000E+00    0.0000000E+00
    0.1062715E+00    0.7806232E+00    0.0000000E+00    0.0000000E+00    0.0000000E+00    0.0000000E+00    0.0000000E+00
    0.1804044E+00    0.7806232E+00    0.0000000E+00    0.0000000E+00    0.0000000E+00    0.0000000E+00    0.0000000E+00
    0.2721004E+00    0.7806232E+00    0.0000000E+00    0.0000000E+00    0.0000000E+00    0.0000000E+00    0.0000000E+00
    0.3798537E+00    0.7806232E+00    0.0000000E+00    0.0000000E+00    0.0000000E+00    0.0000000E+00    0.0000000E+00
    0.5018948E+00    0.7806232E+00    0.0000000E+00    0.0000000E+00    0.0000000E+00    0.0000000E+00    0.0000000E+00
    0.6362199E+00    0.7806232E+00    0.0000000E+00    0.0000000E+00    0.0000000E+00    0.0000000E+00    0.0000000E+00
    0.7806232E+00    0.7806232E+00    0.0000000E+00    0.0000000E+00    0.0000000E+00    0.0000000E+00    0.0000000E+00
    0.9327337E+00    0.7806232E+00    0.0000000E+00    0.0000000E+00    0.0000000E+00    0.0000000E+00    0.0000000E+00
    0.1090054E+01    0.7806232E+00    0.0000000E+00    0.0000000E+00    0.0000000E+00    0.0000000E+00    0.0000000E+00
    0.1250000E+01    0.7806232E+00    0.0000000E+00    0.0000000E+00    0.0000000E+00    0.0000000E+00    0.0000000E+00
    0.1409946E+01    0.7806232E+00    0.0000000E+00    0.0000000E+00    0.0000000E+00    0.0000000E+00    0.0000000E+00
    0.1567266E+01    0.7806232E+00    0.0000000E+00    0.0000000E+00    0.0000000E+00    0.0000000E+00    0.0000000E+00
    0.1719377E+01    0.7806232E+00    0.0000000E+00    0.0000000E+00    0.0000000E+00    0.0000000E+00    0.0000000E+00
    0.1863780E+01    0.7806232E+00    0.0000000E+00    0.0000000E+00    0.0000000E+00    0.0000000E+00    0.0000000E+00
    0.1998105E+01    0.7806232E+00    0.0000000E+00    0.0000000E+00    0.0000000E+00    0.0000000E+00    0.0000000E+00
    0.2120146E+01    0.7806232E+00    0.0000000E+00    0.0000000E+00    0.0000000E+00    0.0000000E+00    0.0000000E+00
    0.2227900E+01    0.7806232E+00    0.0000000E+00    0.0000000E+00    0.0000000E+00    0.0000000E+00    0.0000000E+00
    0.2319596E+01    0.7806232E+00    0.0000000E+00    0.0000000E+00    0.0000000E+00    0.0000000E+00    0.0000000E+00
    0.2393728E+01    0.7806232E+00    0.0000000E+00    0.0000000E+00    0.0000000E+00    0.0000000E+00    0.0000000E+00
    0.2449080E+01    0.7806232E+00    0.0000000E+00    0.0000000E+00    0.0000000E+00    0.0000000E+00    0.0000000E+00
    0.2484737E+01    0.7806232E+00    0.0000000E+00    0.0000000E+00    0.0000000E+00    0.0000000E+00    0.0000000E+00