 Title="after_igtu"
 Variables=x,y,e1,e2,e3,e4,e5
 zone T="           1 ",i=          25 ,j=          25
    0.5000000E+01   -0.5000000E+01   -0.2400000E+03   -0.4800000E+03   -0.2400000E+03    0.0000000E+00   -0.9600000E+03
    0.5015263E+01   -0.5000000E+01    0.1541370E-09    0.4182846E-09   -0.2400000E+03    0.0000000E+00    0.6165482E-09
    0.5050920E+01   -0.5000000E+01   -0.5342719E-09   -0.7023802E-09   -0.2400000E+03    0.0000000E+00   -0.2137087E-08
    0.5106272E+01   -0.5000000E+01   -0.6921302E-09   -0.6266513E-09   -0.2400000E+03    0.0000000E+00   -0.2768521E-08
    0.5180404E+01   -0.5000000E+01   -0.1277433E-08   -0.1295799E-08   -0.2400000E+03    0.0000000E+00   -0.5109733E-08
    0.5272100E+01   -0.5000000E+01   -0.1812593E-08   -0.1803351E-08   -0.2400000E+03    0.0000000E+00   -0.7250370E-08
    0.5379854E+01   -0.5000000E+01   -0.2377558E-08   -0.2384372E-08   -0.2400000E+03    0.0000000E+00   -0.9510230E-08
    0.5501895E+01   -0.5000000E+01   -0.2804470E-08   -0.2796073E-08   -0.2400000E+03    0.0000000E+00   -0.1121788E-07
    0.5636220E+01   -0.5000000E+01   -0.3067030E-08   -0.3073881E-08   -0.2400000E+03    0.0000000E+00   -0.1226812E-07
    0.5780623E+01   -0.5000000E+01   -0.3053765E-08   -0.3047484E-08   -0.2400000E+03    0.0000000E+00   -0.1221506E-07
    0.5932734E+01   -0.5000000E+01   -0.2822281E-08   -0.2827104E-08   -0.2400000E+03    0.0000000E+00   -0.1128912E-07
    0.6090054E+01   -0.5000000E+01   -0.2393590E-08   -0.2391964E-08   -0.2400000E+03    0.0000000E+00   -0.9574362E-08
    0.6250000E+01   -0.5000000E+01   -0.1888964E-08   -0.1888815E-08   -0.2400000E+03    0.0000000E+00   -0.7555857E-08
    0.6409946E+01   -0.5000000E+01   -0.1395424E-08   -0.1398402E-08   -0.2400000E+03    0.0000000E+00   -0.5581696E-08
    0.6567266E+01   -0.5000000E+01   -0.9611728E-09   -0.9533764E-09   -0.2400000E+03    0.0000000E+00   -0.3844691E-08
    0.6719377E+01   -0.5000000E+01   -0.6449804E-09   -0.6451790E-09   -0.2400000E+03    0.0000000E+00   -0.2579921E-08
    0.6863780E+01   -0.5000000E+01   -0.4101613E-09   -0.4037102E-09   -0.2400000E+03    0.0000000E+00   -0.1640645E-08
    0.6998105E+01   -0.5000000E+01   -0.2840820E-09   -0.3022882E-09   -0.2400000E+03    0.0000000E+00   -0.1136328E-08
    0.7120146E+01   -0.5000000E+01   -0.1529178E-09   -0.1351755E-09   -0.2400000E+03    0.0000000E+00   -0.6116712E-09
    0.7227900E+01   -0.5000000E+01   -0.1262005E-09   -0.1401509E-09   -0.2400000E+03    0.0000000E+00   -0.5048019E-09
    0.7319596E+01   -0.5000000E+01   -0.6674775E-10   -0.5646451E-10   -0.2400000E+03    0.0000000E+00   -0.2669910E-09
    0.7393728E+01   -0.5000000E+01   -0.6696958E-10   -0.7788831E-10   -0.2400000E+03    0.0000000E+00   -0.2678783E-09
    0.7449080E+01   -0.5000000E+01    0.4449563E-10    0.1328648E-09   -0.2400000E+03    0.0000000E+00    0.1779825E-09
    0.7484737E+01   -0.5000000E+01   -0.2861285E-09   -0.5349359E-09   -0.2400000E+03    0.0000000E+00   -0.1144514E-08
    0.7500000E+01   -0.5000000E+01    0.2400000E+03    0.4800000E+03   -0.2400000E+03    0.0000000E+00    0.9600000E+03
    0.5000000E+01   -0.4984737E+01   -0.2400000E+03   -0.4800000E+03   -0.2641476E-09    0.0000000E+00   -0.9600000E+03
    0.5015263E+01   -0.4984737E+01    0.0000000E+00    0.0000000E+00    0.0000000E+00    0.0000000E+00    0.0000000E+00
    0.5050920E+01   -0.4984737E+01    0.0000000E+00    0.0000000E+00    0.0000000E+00    0.0000000E+00    0.0000000E+00
    0.5106272E+01   -0.4984737E+01    0.0000000E+00    0.0000000E+00    0.0000000E+00    0.0000000E+00    0.0000000E+00
    0.5180404E+01   -0.4984737E+01    0.0000000E+00    0.0000000E+00    0.0000000E+00    0.0000000E+00    0.0000000E+00
    0.5272100E+01   -0.4984737E+01    0.0000000E+00    0.0000000E+00    0.0000000E+00    0.0000000E+00    0.0000000E+00
    0.5379854E+01   -0.4984737E+01    0.0000000E+00    0.0000000E+00    0.0000000E+00    0.0000000E+00    0.0000000E+00
    0.5501895E+01   -0.4984737E+01    0.0000000E+00    0.0000000E+00    0.0000000E+00    0.0000000E+00    0.0000000E+00
    0.5636220E+01   -0.4984737E+01    0.0000000E+00    0.0000000E+00    0.0000000E+00    0.0000000E+00    0.0000000E+00
    0.5780623E+01   -0.4984737E+01    0.0000000E+00    0.0000000E+00    0.0000000E+00    0.0000000E+00    0.0000000E+00
    0.5932734E+01   -0.4984737E+01    0.0000000E+00    0.0000000E+00    0.0000000E+00    0.0000000E+00    0.0000000E+00
    0.6090054E+01   -0.4984737E+01    0.0000000E+00    0.0000000E+00    0.0000000E+00    0.0000000E+00    0.0000000E+00
    0.6250000E+01   -0.4984737E+01    0.0000000E+00    0.0000000E+00    0.0000000E+00    0.0000000E+00    0.0000000E+00
    0.6409946E+01   -0.4984737E+01    0.0000000E+00    0.0000000E+00    0.0000000E+00    0.0000000E+00    0.0000000E+00
    0.6567266E+01   -0.4984737E+01    0.0000000E+00    0.0000000E+00    0.0000000E+00    0.0000000E+00    0.0000000E+00
    0.6719377E+01   -0.4984737E+01    0.0000000E+00    0.0000000E+00    0.0000000E+00    0.0000000E+00    0.0000000E+00
    0.6863780E+01   -0.4984737E+01    0.0000000E+00    0.0000000E+00    0.0000000E+00    0.0000000E+00    0.0000000E+00
    0.6998105E+01   -0.4984737E+01    0.0000000E+00    0.0000000E+00    0.0000000E+00    0.0000000E+00    0.0000000E+00
    0.7120146E+01   -0.4984737E+01    0.0000000E+00    0.0000000E+00    0.0000000E+00    0.0000000E+00    0.0000000E+00
    0.7227900E+01   -0.4984737E+01    0.0000000E+00    0.0000000E+00    0.0000000E+00    0.0000000E+00    0.0000000E+00
    0.7319596E+01   -0.4984737E+01    0.0000000E+00    0.0000000E+00    0.0000000E+00    0.0000000E+00    0.0000000E+00
    0.7393728E+01   -0.4984737E+01    0.0000000E+00    0.0000000E+00    0.0000000E+00    0.0000000E+00    0.0000000E+00
    0.7449080E+01   -0.4984737E+01    0.0000000E+00    0.0000000E+00    0.0000000E+00    0.0000000E+00    0.0000000E+00
    0.7484737E+01   -0.4984737E+01    0.0000000E+00    0.0000000E+00    0.0000000E+00    0.0000000E+00    0.0000000E+00
    0.7500000E+01   -0.4984737E+01    0.2400000E+03    0.4800000E+03    0.4012163E-09    0.0000000E+00    0.9600000E+03
    0.5000000E+01   -0.4949080E+01   -0.2400000E+03   -0.4800000E+03    0.1681083E-09    0.0000000E+00   -0.9600000E+03
    0.5015263E+01   -0.4949080E+01    0.0000000E+00    0.0000000E+00    0.0000000E+00    0.0000000E+00    0.0000000E+00
    0.5050920E+01   -0.4949080E+01    0.0000000E+00    0.0000000E+00    0.0000000E+00    0.0000000E+00    0.0000000E+00
    0.5106272E+01   -0.4949080E+01    0.0000000E+00    0.0000000E+00    0.0000000E+00    0.0000000E+00    0.0000000E+00
    0.5180404E+01   -0.4949080E+01    0.0000000E+00    0.0000000E+00    0.0000000E+00    0.0000000E+00    0.0000000E+00
    0.5272100E+01   -0.4949080E+01    0.0000000E+00    0.0000000E+00    0.0000000E+00    0.0000000E+00    0.0000000E+00
    0.5379854E+01   -0.4949080E+01    0.0000000E+00    0.0000000E+00    0.0000000E+00    0.0000000E+00    0.0000000E+00
    0.5501895E+01   -0.4949080E+01    0.0000000E+00    0.0000000E+00    0.0000000E+00    0.0000000E+00    0.0000000E+00
    0.5636220E+01   -0.4949080E+01    0.0000000E+00    0.0000000E+00    0.0000000E+00    0.0000000E+00    0.0000000E+00
    0.5780623E+01   -0.4949080E+01    0.0000000E+00    0.0000000E+00    0.0000000E+00    0.0000000E+00    0.0000000E+00
    0.5932734E+01   -0.4949080E+01    0.0000000E+00    0.0000000E+00    0.0000000E+00    0.0000000E+00    0.0000000E+00
    0.6090054E+01   -0.4949080E+01    0.0000000E+00    0.0000000E+00    0.0000000E+00    0.0000000E+00    0.0000000E+00
    0.6250000E+01   -0.4949080E+01    0.0000000E+00    0.0000000E+00    0.0000000E+00    0.0000000E+00    0.0000000E+00
    0.6409946E+01   -0.4949080E+01    0.0000000E+00    0.0000000E+00    0.0000000E+00    0.0000000E+00    0.0000000E+00
    0.6567266E+01   -0.4949080E+01    0.0000000E+00    0.0000000E+00    0.0000000E+00    0.0000000E+00    0.0000000E+00
    0.6719377E+01   -0.4949080E+01    0.0000000E+00    0.0000000E+00    0.0000000E+00    0.0000000E+00    0.0000000E+00
    0.6863780E+01   -0.4949080E+01    0.0000000E+00    0.0000000E+00    0.0000000E+00    0.0000000E+00    0.0000000E+00
    0.6998105E+01   -0.4949080E+01    0.0000000E+00    0.0000000E+00    0.0000000E+00    0.0000000E+00    0.0000000E+00
    0.7120146E+01   -0.4949080E+01    0.0000000E+00    0.0000000E+00    0.0000000E+00    0.0000000E+00    0.0000000E+00
    0.7227900E+01   -0.4949080E+01    0.0000000E+00    0.0000000E+00    0.0000000E+00    0.0000000E+00    0.0000000E+00
    0.7319596E+01   -0.4949080E+01    0.0000000E+00    0.0000000E+00    0.0000000E+00    0.0000000E+00    0.0000000E+00
    0.7393728E+01   -0.4949080E+01    0.0000000E+00    0.0000000E+00    0.0000000E+00    0.0000000E+00    0.0000000E+00
    0.7449080E+01   -0.4949080E+01    0.0000000E+00    0.0000000E+00    0.0000000E+00    0.0000000E+00    0.0000000E+00
    0.7484737E+01   -0.4949080E+01    0.0000000E+00    0.0000000E+00    0.0000000E+00    0.0000000E+00    0.0000000E+00
    0.7500000E+01   -0.4949080E+01    0.2400000E+03    0.4800000E+03   -0.1691266E-09    0.0000000E+00    0.9600000E+03
    0.5000000E+01   -0.4893728E+01   -0.2400000E+03   -0.4800000E+03   -0.6547882E-10    0.0000000E+00   -0.9600000E+03
    0.5015263E+01   -0.4893728E+01    0.0000000E+00    0.0000000E+00    0.0000000E+00    0.0000000E+00    0.0000000E+00
    0.5050920E+01   -0.4893728E+01    0.0000000E+00    0.0000000E+00    0.0000000E+00    0.0000000E+00    0.0000000E+00
    0.5106272E+01   -0.4893728E+01    0.0000000E+00    0.0000000E+00    0.0000000E+00    0.0000000E+00    0.0000000E+00
    0.5180404E+01   -0.4893728E+01    0.0000000E+00    0.0000000E+00    0.0000000E+00    0.0000000E+00    0.0000000E+00
    0.5272100E+01   -0.4893728E+01    0.0000000E+00    0.0000000E+00    0.0000000E+00    0.0000000E+00    0.0000000E+00
    0.5379854E+01   -0.4893728E+01    0.0000000E+00    0.0000000E+00    0.0000000E+00    0.0000000E+00    0.0000000E+00
    0.5501895E+01   -0.4893728E+01    0.0000000E+00    0.0000000E+00    0.0000000E+00    0.0000000E+00    0.0000000E+00
    0.5636220E+01   -0.4893728E+01    0.0000000E+00    0.0000000E+00    0.0000000E+00    0.0000000E+00    0.0000000E+00
    0.5780623E+01   -0.4893728E+01    0.0000000E+00    0.0000000E+00    0.0000000E+00    0.0000000E+00    0.0000000E+00
    0.5932734E+01   -0.4893728E+01    0.0000000E+00    0.0000000E+00    0.0000000E+00    0.0000000E+00    0.0000000E+00
    0.6090054E+01   -0.4893728E+01    0.0000000E+00    0.0000000E+00    0.0000000E+00    0.0000000E+00    0.0000000E+00
    0.6250000E+01   -0.4893728E+01    0.0000000E+00    0.0000000E+00    0.0000000E+00    0.0000000E+00    0.0000000E+00
    0.6409946E+01   -0.4893728E+01    0.0000000E+00    0.0000000E+00    0.0000000E+00    0.0000000E+00    0.0000000E+00
    0.6567266E+01   -0.4893728E+01    0.0000000E+00    0.0000000E+00    0.0000000E+00    0.0000000E+00    0.0000000E+00
    0.6719377E+01   -0.4893728E+01    0.0000000E+00    0.0000000E+00    0.0000000E+00    0.0000000E+00    0.0000000E+00
    0.6863780E+01   -0.4893728E+01    0.0000000E+00    0.0000000E+00    0.0000000E+00    0.0000000E+00    0.0000000E+00
    0.6998105E+01   -0.4893728E+01    0.0000000E+00    0.0000000E+00    0.0000000E+00    0.0000000E+00    0.0000000E+00
    0.7120146E+01   -0.4893728E+01    0.0000000E+00    0.0000000E+00    0.0000000E+00    0.0000000E+00    0.0000000E+00
    0.7227900E+01   -0.4893728E+01    0.0000000E+00    0.0000000E+00    0.0000000E+00    0.0000000E+00    0.0000000E+00
    0.7319596E+01   -0.4893728E+01    0.0000000E+00    0.0000000E+00    0.0000000E+00    0.0000000E+00    0.0000000E+00
    0.7393728E+01   -0.4893728E+01    0.0000000E+00    0.0000000E+00    0.0000000E+00    0.0000000E+00    0.0000000E+00
    0.7449080E+01   -0.4893728E+01    0.0000000E+00    0.0000000E+00    0.0000000E+00    0.0000000E+00    0.0000000E+00
    0.7484737E+01   -0.4893728E+01    0.0000000E+00    0.0000000E+00    0.0000000E+00    0.0000000E+00    0.0000000E+00
    0.7500000E+01   -0.4893728E+01    0.2400000E+03    0.4800000E+03    0.1858286E-09    0.0000000E+00    0.9600000E+03
    0.5000000E+01   -0.4819596E+01   -0.2400000E+03   -0.4800000E+03    0.1836583E-10    0.0000000E+00   -0.9600000E+03
    0.5015263E+01   -0.4819596E+01    0.0000000E+00    0.0000000E+00    0.0000000E+00    0.0000000E+00    0.0000000E+00
    0.5050920E+01   -0.4819596E+01    0.0000000E+00    0.0000000E+00    0.0000000E+00    0.0000000E+00    0.0000000E+00
    0.5106272E+01   -0.4819596E+01    0.0000000E+00    0.0000000E+00    0.0000000E+00    0.0000000E+00    0.0000000E+00
    0.5180404E+01   -0.4819596E+01    0.0000000E+00    0.0000000E+00    0.0000000E+00    0.0000000E+00    0.0000000E+00
    0.5272100E+01   -0.4819596E+01    0.0000000E+00    0.0000000E+00    0.0000000E+00    0.0000000E+00    0.0000000E+00
    0.5379854E+01   -0.4819596E+01    0.0000000E+00    0.0000000E+00    0.0000000E+00    0.0000000E+00    0.0000000E+00
    0.5501895E+01   -0.4819596E+01    0.0000000E+00    0.0000000E+00    0.0000000E+00    0.0000000E+00    0.0000000E+00
    0.5636220E+01   -0.4819596E+01    0.0000000E+00    0.0000000E+00    0.0000000E+00    0.0000000E+00    0.0000000E+00
    0.5780623E+01   -0.4819596E+01    0.0000000E+00    0.0000000E+00    0.0000000E+00    0.0000000E+00    0.0000000E+00
    0.5932734E+01   -0.4819596E+01    0.0000000E+00    0.0000000E+00    0.0000000E+00    0.0000000E+00    0.0000000E+00
    0.6090054E+01   -0.4819596E+01    0.0000000E+00    0.0000000E+00    0.0000000E+00    0.0000000E+00    0.0000000E+00
    0.6250000E+01   -0.4819596E+01    0.0000000E+00    0.0000000E+00    0.0000000E+00    0.0000000E+00    0.0000000E+00
    0.6409946E+01   -0.4819596E+01    0.0000000E+00    0.0000000E+00    0.0000000E+00    0.0000000E+00    0.0000000E+00
    0.6567266E+01   -0.4819596E+01    0.0000000E+00    0.0000000E+00    0.0000000E+00    0.0000000E+00    0.0000000E+00
    0.6719377E+01   -0.4819596E+01    0.0000000E+00    0.0000000E+00    0.0000000E+00    0.0000000E+00    0.0000000E+00
    0.6863780E+01   -0.4819596E+01    0.0000000E+00    0.0000000E+00    0.0000000E+00    0.0000000E+00    0.0000000E+00
    0.6998105E+01   -0.4819596E+01    0.0000000E+00    0.0000000E+00    0.0000000E+00    0.0000000E+00    0.0000000E+00
    0.7120146E+01   -0.4819596E+01    0.0000000E+00    0.0000000E+00    0.0000000E+00    0.0000000E+00    0.0000000E+00
    0.7227900E+01   -0.4819596E+01    0.0000000E+00    0.0000000E+00    0.0000000E+00    0.0000000E+00    0.0000000E+00
    0.7319596E+01   -0.4819596E+01    0.0000000E+00    0.0000000E+00    0.0000000E+00    0.0000000E+00    0.0000000E+00
    0.7393728E+01   -0.4819596E+01    0.0000000E+00    0.0000000E+00    0.0000000E+00    0.0000000E+00    0.0000000E+00
    0.7449080E+01   -0.4819596E+01    0.0000000E+00    0.0000000E+00    0.0000000E+00    0.0000000E+00    0.0000000E+00
    0.7484737E+01   -0.4819596E+01    0.0000000E+00    0.0000000E+00    0.0000000E+00    0.0000000E+00    0.0000000E+00
    0.7500000E+01   -0.4819596E+01    0.2400000E+03    0.4800000E+03    0.1830643E-09    0.0000000E+00    0.9600000E+03
    0.5000000E+01   -0.4727900E+01   -0.2400000E+03   -0.4800000E+03   -0.9241667E-11    0.0000000E+00   -0.9600000E+03
    0.5015263E+01   -0.4727900E+01    0.0000000E+00    0.0000000E+00    0.0000000E+00    0.0000000E+00    0.0000000E+00
    0.5050920E+01   -0.4727900E+01    0.0000000E+00    0.0000000E+00    0.0000000E+00    0.0000000E+00    0.0000000E+00
    0.5106272E+01   -0.4727900E+01    0.0000000E+00    0.0000000E+00    0.0000000E+00    0.0000000E+00    0.0000000E+00
    0.5180404E+01   -0.4727900E+01    0.0000000E+00    0.0000000E+00    0.0000000E+00    0.0000000E+00    0.0000000E+00
    0.5272100E+01   -0.4727900E+01    0.0000000E+00    0.0000000E+00    0.0000000E+00    0.0000000E+00    0.0000000E+00
    0.5379854E+01   -0.4727900E+01    0.0000000E+00    0.0000000E+00    0.0000000E+00    0.0000000E+00    0.0000000E+00
    0.5501895E+01   -0.4727900E+01    0.0000000E+00    0.0000000E+00    0.0000000E+00    0.0000000E+00    0.0000000E+00
    0.5636220E+01   -0.4727900E+01    0.0000000E+00    0.0000000E+00    0.0000000E+00    0.0000000E+00    0.0000000E+00
    0.5780623E+01   -0.4727900E+01    0.0000000E+00    0.0000000E+00    0.0000000E+00    0.0000000E+00    0.0000000E+00
    0.5932734E+01   -0.4727900E+01    0.0000000E+00    0.0000000E+00    0.0000000E+00    0.0000000E+00    0.0000000E+00
    0.6090054E+01   -0.4727900E+01    0.0000000E+00    0.0000000E+00    0.0000000E+00    0.0000000E+00    0.0000000E+00
    0.6250000E+01   -0.4727900E+01    0.0000000E+00    0.0000000E+00    0.0000000E+00    0.0000000E+00    0.0000000E+00
    0.6409946E+01   -0.4727900E+01    0.0000000E+00    0.0000000E+00    0.0000000E+00    0.0000000E+00    0.0000000E+00
    0.6567266E+01   -0.4727900E+01    0.0000000E+00    0.0000000E+00    0.0000000E+00    0.0000000E+00    0.0000000E+00
    0.6719377E+01   -0.4727900E+01    0.0000000E+00    0.0000000E+00    0.0000000E+00    0.0000000E+00    0.0000000E+00
    0.6863780E+01   -0.4727900E+01    0.0000000E+00    0.0000000E+00    0.0000000E+00    0.0000000E+00    0.0000000E+00
    0.6998105E+01   -0.4727900E+01    0.0000000E+00    0.0000000E+00    0.0000000E+00    0.0000000E+00    0.0000000E+00
    0.7120146E+01   -0.4727900E+01    0.0000000E+00    0.0000000E+00    0.0000000E+00    0.0000000E+00    0.0000000E+00
    0.7227900E+01   -0.4727900E+01    0.0000000E+00    0.0000000E+00    0.0000000E+00    0.0000000E+00    0.0000000E+00
    0.7319596E+01   -0.4727900E+01    0.0000000E+00    0.0000000E+00    0.0000000E+00    0.0000000E+00    0.0000000E+00
    0.7393728E+01   -0.4727900E+01    0.0000000E+00    0.0000000E+00    0.0000000E+00    0.0000000E+00    0.0000000E+00
    0.7449080E+01   -0.4727900E+01    0.0000000E+00    0.0000000E+00    0.0000000E+00    0.0000000E+00    0.0000000E+00
    0.7484737E+01   -0.4727900E+01    0.0000000E+00    0.0000000E+00    0.0000000E+00    0.0000000E+00    0.0000000E+00
    0.7500000E+01   -0.4727900E+01    0.2400000E+03    0.4800000E+03    0.5089574E-09    0.0000000E+00    0.9600000E+03
    0.5000000E+01   -0.4620146E+01   -0.2400000E+03   -0.4800000E+03    0.6814033E-11    0.0000000E+00   -0.9600000E+03
    0.5015263E+01   -0.4620146E+01    0.0000000E+00    0.0000000E+00    0.0000000E+00    0.0000000E+00    0.0000000E+00
    0.5050920E+01   -0.4620146E+01    0.0000000E+00    0.0000000E+00    0.0000000E+00    0.0000000E+00    0.0000000E+00
    0.5106272E+01   -0.4620146E+01    0.0000000E+00    0.0000000E+00    0.0000000E+00    0.0000000E+00    0.0000000E+00
    0.5180404E+01   -0.4620146E+01    0.0000000E+00    0.0000000E+00    0.0000000E+00    0.0000000E+00    0.0000000E+00
    0.5272100E+01   -0.4620146E+01    0.0000000E+00    0.0000000E+00    0.0000000E+00    0.0000000E+00    0.0000000E+00
    0.5379854E+01   -0.4620146E+01    0.0000000E+00    0.0000000E+00    0.0000000E+00    0.0000000E+00    0.0000000E+00
    0.5501895E+01   -0.4620146E+01    0.0000000E+00    0.0000000E+00    0.0000000E+00    0.0000000E+00    0.0000000E+00
    0.5636220E+01   -0.4620146E+01    0.0000000E+00    0.0000000E+00    0.0000000E+00    0.0000000E+00    0.0000000E+00
    0.5780623E+01   -0.4620146E+01    0.0000000E+00    0.0000000E+00    0.0000000E+00    0.0000000E+00    0.0000000E+00
    0.5932734E+01   -0.4620146E+01    0.0000000E+00    0.0000000E+00    0.0000000E+00    0.0000000E+00    0.0000000E+00
    0.6090054E+01   -0.4620146E+01    0.0000000E+00    0.0000000E+00    0.0000000E+00    0.0000000E+00    0.0000000E+00
    0.6250000E+01   -0.4620146E+01    0.0000000E+00    0.0000000E+00    0.0000000E+00    0.0000000E+00    0.0000000E+00
    0.6409946E+01   -0.4620146E+01    0.0000000E+00    0.0000000E+00    0.0000000E+00    0.0000000E+00    0.0000000E+00
    0.6567266E+01   -0.4620146E+01    0.0000000E+00    0.0000000E+00    0.0000000E+00    0.0000000E+00    0.0000000E+00
    0.6719377E+01   -0.4620146E+01    0.0000000E+00    0.0000000E+00    0.0000000E+00    0.0000000E+00    0.0000000E+00
    0.6863780E+01   -0.4620146E+01    0.0000000E+00    0.0000000E+00    0.0000000E+00    0.0000000E+00    0.0000000E+00
    0.6998105E+01   -0.4620146E+01    0.0000000E+00    0.0000000E+00    0.0000000E+00    0.0000000E+00    0.0000000E+00
    0.7120146E+01   -0.4620146E+01    0.0000000E+00    0.0000000E+00    0.0000000E+00    0.0000000E+00    0.0000000E+00
    0.7227900E+01   -0.4620146E+01    0.0000000E+00    0.0000000E+00    0.0000000E+00    0.0000000E+00    0.0000000E+00
    0.7319596E+01   -0.4620146E+01    0.0000000E+00    0.0000000E+00    0.0000000E+00    0.0000000E+00    0.0000000E+00
    0.7393728E+01   -0.4620146E+01    0.0000000E+00    0.0000000E+00    0.0000000E+00    0.0000000E+00    0.0000000E+00
    0.7449080E+01   -0.4620146E+01    0.0000000E+00    0.0000000E+00    0.0000000E+00    0.0000000E+00    0.0000000E+00
    0.7484737E+01   -0.4620146E+01    0.0000000E+00    0.0000000E+00    0.0000000E+00    0.0000000E+00    0.0000000E+00
    0.7500000E+01   -0.4620146E+01    0.2400000E+03    0.4800000E+03    0.1334361E-08    0.0000000E+00    0.9600000E+03
    0.5000000E+01   -0.4498105E+01   -0.2400000E+03   -0.4800000E+03   -0.8396559E-11    0.0000000E+00   -0.9600000E+03
    0.5015263E+01   -0.4498105E+01    0.0000000E+00    0.0000000E+00    0.0000000E+00    0.0000000E+00    0.0000000E+00
    0.5050920E+01   -0.4498105E+01    0.0000000E+00    0.0000000E+00    0.0000000E+00    0.0000000E+00    0.0000000E+00
    0.5106272E+01   -0.4498105E+01    0.0000000E+00    0.0000000E+00    0.0000000E+00    0.0000000E+00    0.0000000E+00
    0.5180404E+01   -0.4498105E+01    0.0000000E+00    0.0000000E+00    0.0000000E+00    0.0000000E+00    0.0000000E+00
    0.5272100E+01   -0.4498105E+01    0.0000000E+00    0.0000000E+00    0.0000000E+00    0.0000000E+00    0.0000000E+00
    0.5379854E+01   -0.4498105E+01    0.0000000E+00    0.0000000E+00    0.0000000E+00    0.0000000E+00    0.0000000E+00
    0.5501895E+01   -0.4498105E+01    0.0000000E+00    0.0000000E+00    0.0000000E+00    0.0000000E+00    0.0000000E+00
    0.5636220E+01   -0.4498105E+01    0.0000000E+00    0.0000000E+00    0.0000000E+00    0.0000000E+00    0.0000000E+00
    0.5780623E+01   -0.4498105E+01    0.0000000E+00    0.0000000E+00    0.0000000E+00    0.0000000E+00    0.0000000E+00
    0.5932734E+01   -0.4498105E+01    0.0000000E+00    0.0000000E+00    0.0000000E+00    0.0000000E+00    0.0000000E+00
    0.6090054E+01   -0.4498105E+01    0.0000000E+00    0.0000000E+00    0.0000000E+00    0.0000000E+00    0.0000000E+00
    0.6250000E+01   -0.4498105E+01    0.0000000E+00    0.0000000E+00    0.0000000E+00    0.0000000E+00    0.0000000E+00
    0.6409946E+01   -0.4498105E+01    0.0000000E+00    0.0000000E+00    0.0000000E+00    0.0000000E+00    0.0000000E+00
    0.6567266E+01   -0.4498105E+01    0.0000000E+00    0.0000000E+00    0.0000000E+00    0.0000000E+00    0.0000000E+00
    0.6719377E+01   -0.4498105E+01    0.0000000E+00    0.0000000E+00    0.0000000E+00    0.0000000E+00    0.0000000E+00
    0.6863780E+01   -0.4498105E+01    0.0000000E+00    0.0000000E+00    0.0000000E+00    0.0000000E+00    0.0000000E+00
    0.6998105E+01   -0.4498105E+01    0.0000000E+00    0.0000000E+00    0.0000000E+00    0.0000000E+00    0.0000000E+00
    0.7120146E+01   -0.4498105E+01    0.0000000E+00    0.0000000E+00    0.0000000E+00    0.0000000E+00    0.0000000E+00
    0.7227900E+01   -0.4498105E+01    0.0000000E+00    0.0000000E+00    0.0000000E+00    0.0000000E+00    0.0000000E+00
    0.7319596E+01   -0.4498105E+01    0.0000000E+00    0.0000000E+00    0.0000000E+00    0.0000000E+00    0.0000000E+00
    0.7393728E+01   -0.4498105E+01    0.0000000E+00    0.0000000E+00    0.0000000E+00    0.0000000E+00    0.0000000E+00
    0.7449080E+01   -0.4498105E+01    0.0000000E+00    0.0000000E+00    0.0000000E+00    0.0000000E+00    0.0000000E+00
    0.7484737E+01   -0.4498105E+01    0.0000000E+00    0.0000000E+00    0.0000000E+00    0.0000000E+00    0.0000000E+00
    0.7500000E+01   -0.4498105E+01    0.2400000E+03    0.4800000E+03    0.4102807E-08    0.0000000E+00    0.9600000E+03
    0.5000000E+01   -0.4363780E+01   -0.2400000E+03   -0.4800000E+03    0.6850221E-11    0.0000000E+00   -0.9600001E+03
    0.5015263E+01   -0.4363780E+01    0.0000000E+00    0.0000000E+00    0.0000000E+00    0.0000000E+00    0.0000000E+00
    0.5050920E+01   -0.4363780E+01    0.0000000E+00    0.0000000E+00    0.0000000E+00    0.0000000E+00    0.0000000E+00
    0.5106272E+01   -0.4363780E+01    0.0000000E+00    0.0000000E+00    0.0000000E+00    0.0000000E+00    0.0000000E+00
    0.5180404E+01   -0.4363780E+01    0.0000000E+00    0.0000000E+00    0.0000000E+00    0.0000000E+00    0.0000000E+00
    0.5272100E+01   -0.4363780E+01    0.0000000E+00    0.0000000E+00    0.0000000E+00    0.0000000E+00    0.0000000E+00
    0.5379854E+01   -0.4363780E+01    0.0000000E+00    0.0000000E+00    0.0000000E+00    0.0000000E+00    0.0000000E+00
    0.5501895E+01   -0.4363780E+01    0.0000000E+00    0.0000000E+00    0.0000000E+00    0.0000000E+00    0.0000000E+00
    0.5636220E+01   -0.4363780E+01    0.0000000E+00    0.0000000E+00    0.0000000E+00    0.0000000E+00    0.0000000E+00
    0.5780623E+01   -0.4363780E+01    0.0000000E+00    0.0000000E+00    0.0000000E+00    0.0000000E+00    0.0000000E+00
    0.5932734E+01   -0.4363780E+01    0.0000000E+00    0.0000000E+00    0.0000000E+00    0.0000000E+00    0.0000000E+00
    0.6090054E+01   -0.4363780E+01    0.0000000E+00    0.0000000E+00    0.0000000E+00    0.0000000E+00    0.0000000E+00
    0.6250000E+01   -0.4363780E+01    0.0000000E+00    0.0000000E+00    0.0000000E+00    0.0000000E+00    0.0000000E+00
    0.6409946E+01   -0.4363780E+01    0.0000000E+00    0.0000000E+00    0.0000000E+00    0.0000000E+00    0.0000000E+00
    0.6567266E+01   -0.4363780E+01    0.0000000E+00    0.0000000E+00    0.0000000E+00    0.0000000E+00    0.0000000E+00
    0.6719377E+01   -0.4363780E+01    0.0000000E+00    0.0000000E+00    0.0000000E+00    0.0000000E+00    0.0000000E+00
    0.6863780E+01   -0.4363780E+01    0.0000000E+00    0.0000000E+00    0.0000000E+00    0.0000000E+00    0.0000000E+00
    0.6998105E+01   -0.4363780E+01    0.0000000E+00    0.0000000E+00    0.0000000E+00    0.0000000E+00    0.0000000E+00
    0.7120146E+01   -0.4363780E+01    0.0000000E+00    0.0000000E+00    0.0000000E+00    0.0000000E+00    0.0000000E+00
    0.7227900E+01   -0.4363780E+01    0.0000000E+00    0.0000000E+00    0.0000000E+00    0.0000000E+00    0.0000000E+00
    0.7319596E+01   -0.4363780E+01    0.0000000E+00    0.0000000E+00    0.0000000E+00    0.0000000E+00    0.0000000E+00
    0.7393728E+01   -0.4363780E+01    0.0000000E+00    0.0000000E+00    0.0000000E+00    0.0000000E+00    0.0000000E+00
    0.7449080E+01   -0.4363780E+01    0.0000000E+00    0.0000000E+00    0.0000000E+00    0.0000000E+00    0.0000000E+00
    0.7484737E+01   -0.4363780E+01    0.0000000E+00    0.0000000E+00    0.0000000E+00    0.0000000E+00    0.0000000E+00
    0.7500000E+01   -0.4363780E+01    0.2400000E+03    0.4800000E+03    0.1344076E-07    0.0000000E+00    0.9600000E+03
    0.5000000E+01   -0.4219377E+01   -0.2400000E+03   -0.4800001E+03   -0.6281472E-11    0.0000000E+00   -0.9600002E+03
    0.5015263E+01   -0.4219377E+01    0.0000000E+00    0.0000000E+00    0.0000000E+00    0.0000000E+00    0.0000000E+00
    0.5050920E+01   -0.4219377E+01    0.0000000E+00    0.0000000E+00    0.0000000E+00    0.0000000E+00    0.0000000E+00
    0.5106272E+01   -0.4219377E+01    0.0000000E+00    0.0000000E+00    0.0000000E+00    0.0000000E+00    0.0000000E+00
    0.5180404E+01   -0.4219377E+01    0.0000000E+00    0.0000000E+00    0.0000000E+00    0.0000000E+00    0.0000000E+00
    0.5272100E+01   -0.4219377E+01    0.0000000E+00    0.0000000E+00    0.0000000E+00    0.0000000E+00    0.0000000E+00
    0.5379854E+01   -0.4219377E+01    0.0000000E+00    0.0000000E+00    0.0000000E+00    0.0000000E+00    0.0000000E+00
    0.5501895E+01   -0.4219377E+01    0.0000000E+00    0.0000000E+00    0.0000000E+00    0.0000000E+00    0.0000000E+00
    0.5636220E+01   -0.4219377E+01    0.0000000E+00    0.0000000E+00    0.0000000E+00    0.0000000E+00    0.0000000E+00
    0.5780623E+01   -0.4219377E+01    0.0000000E+00    0.0000000E+00    0.0000000E+00    0.0000000E+00    0.0000000E+00
    0.5932734E+01   -0.4219377E+01    0.0000000E+00    0.0000000E+00    0.0000000E+00    0.0000000E+00    0.0000000E+00
    0.6090054E+01   -0.4219377E+01    0.0000000E+00    0.0000000E+00    0.0000000E+00    0.0000000E+00    0.0000000E+00
    0.6250000E+01   -0.4219377E+01    0.0000000E+00    0.0000000E+00    0.0000000E+00    0.0000000E+00    0.0000000E+00
    0.6409946E+01   -0.4219377E+01    0.0000000E+00    0.0000000E+00    0.0000000E+00    0.0000000E+00    0.0000000E+00
    0.6567266E+01   -0.4219377E+01    0.0000000E+00    0.0000000E+00    0.0000000E+00    0.0000000E+00    0.0000000E+00
    0.6719377E+01   -0.4219377E+01    0.0000000E+00    0.0000000E+00    0.0000000E+00    0.0000000E+00    0.0000000E+00
    0.6863780E+01   -0.4219377E+01    0.0000000E+00    0.0000000E+00    0.0000000E+00    0.0000000E+00    0.0000000E+00
    0.6998105E+01   -0.4219377E+01    0.0000000E+00    0.0000000E+00    0.0000000E+00    0.0000000E+00    0.0000000E+00
    0.7120146E+01   -0.4219377E+01    0.0000000E+00    0.0000000E+00    0.0000000E+00    0.0000000E+00    0.0000000E+00
    0.7227900E+01   -0.4219377E+01    0.0000000E+00    0.0000000E+00    0.0000000E+00    0.0000000E+00    0.0000000E+00
    0.7319596E+01   -0.4219377E+01    0.0000000E+00    0.0000000E+00    0.0000000E+00    0.0000000E+00    0.0000000E+00
    0.7393728E+01   -0.4219377E+01    0.0000000E+00    0.0000000E+00    0.0000000E+00    0.0000000E+00    0.0000000E+00
    0.7449080E+01   -0.4219377E+01    0.0000000E+00    0.0000000E+00    0.0000000E+00    0.0000000E+00    0.0000000E+00
    0.7484737E+01   -0.4219377E+01    0.0000000E+00    0.0000000E+00    0.0000000E+00    0.0000000E+00    0.0000000E+00