 Title="after_inviscid"
 Variables=x,y,e1,e2,e3,e4,e5
 zone T="           1 ",i=          25 ,j=          25
    0.0000000E+00   -0.5000000E+01   -0.2400000E+03   -0.4800000E+03   -0.2400000E+03    0.0000000E+00   -0.9600000E+03
    0.1526257E-01   -0.5000000E+01    0.2641397E-09    0.5282873E-09   -0.2400000E+03    0.0000000E+00    0.1056559E-08
    0.5091983E-01   -0.5000000E+01   -0.1681257E-09   -0.3362340E-09   -0.2400000E+03    0.0000000E+00   -0.6725028E-09
    0.1062715E+00   -0.5000000E+01    0.6548569E-10    0.1309645E-09   -0.2400000E+03    0.0000000E+00    0.2619428E-09
    0.1804044E+00   -0.5000000E+01   -0.1836033E-10   -0.3672617E-10   -0.2400000E+03    0.0000000E+00   -0.7344131E-10
    0.2721004E+00   -0.5000000E+01    0.9235271E-11    0.1847695E-10   -0.2400000E+03    0.0000000E+00    0.3694109E-10
    0.3798537E+00   -0.5000000E+01   -0.6826511E-11   -0.1364055E-10   -0.2400000E+03    0.0000000E+00   -0.2730604E-10
    0.5018948E+00   -0.5000000E+01    0.8406985E-11    0.1680355E-10   -0.2400000E+03    0.0000000E+00    0.3362794E-10
    0.6362199E+00   -0.5000000E+01   -0.6843489E-11   -0.1369372E-10   -0.2400000E+03    0.0000000E+00   -0.2737396E-10
    0.7806232E+00   -0.5000000E+01    0.6277433E-11    0.1255891E-10   -0.2400000E+03    0.0000000E+00    0.2510973E-10
    0.9327337E+00   -0.5000000E+01   -0.4813781E-11   -0.9636623E-11   -0.2400000E+03    0.0000000E+00   -0.1925512E-10
    0.1090054E+01   -0.5000000E+01    0.1634751E-11    0.3261422E-11   -0.2400000E+03    0.0000000E+00    0.6539004E-11
    0.1250000E+01   -0.5000000E+01    0.1572441E-12    0.3067879E-12   -0.2400000E+03    0.0000000E+00    0.6289763E-12
    0.1409946E+01   -0.5000000E+01   -0.2922468E-11   -0.5900114E-11   -0.2400000E+03    0.0000000E+00   -0.1168987E-10
    0.1567266E+01   -0.5000000E+01    0.7984566E-11    0.1578096E-10   -0.2400000E+03    0.0000000E+00    0.3193826E-10
    0.1719377E+01   -0.5000000E+01    0.2987513E-12    0.1000817E-12   -0.2400000E+03    0.0000000E+00    0.1195005E-11
    0.1863780E+01   -0.5000000E+01    0.7655195E-11    0.1410633E-10   -0.2400000E+03    0.0000000E+00    0.3062078E-10
    0.1998105E+01   -0.5000000E+01   -0.1556341E-10   -0.3376956E-10   -0.2400000E+03    0.0000000E+00   -0.6225364E-10
    0.2120146E+01   -0.5000000E+01    0.2292837E-10    0.4067068E-10   -0.2400000E+03    0.0000000E+00    0.9171346E-10
    0.2227900E+01   -0.5000000E+01   -0.4766808E-11   -0.1871725E-10   -0.2400000E+03    0.0000000E+00   -0.1906723E-10
    0.2319596E+01   -0.5000000E+01    0.2493254E-10    0.3521579E-10   -0.2400000E+03    0.0000000E+00    0.9973017E-10
    0.2393728E+01   -0.5000000E+01    0.1014857E-10   -0.7701597E-12   -0.2400000E+03    0.0000000E+00    0.4059427E-10
    0.2449080E+01   -0.5000000E+01    0.1158233E-09    0.2041925E-09   -0.2400000E+03    0.0000000E+00    0.4632933E-09
    0.2484737E+01   -0.5000000E+01   -0.2163669E-09   -0.4651743E-09   -0.2400000E+03    0.0000000E+00   -0.8654677E-09
    0.2500000E+01   -0.5000000E+01    0.2400000E+03    0.4800000E+03   -0.2400000E+03    0.0000000E+00    0.9600000E+03
    0.0000000E+00   -0.4984737E+01   -0.2400000E+03   -0.4800000E+03   -0.5830769E-18    0.0000000E+00   -0.9600000E+03
    0.1526257E-01   -0.4984737E+01    0.0000000E+00    0.0000000E+00    0.0000000E+00    0.0000000E+00    0.0000000E+00
    0.5091983E-01   -0.4984737E+01    0.0000000E+00    0.0000000E+00    0.0000000E+00    0.0000000E+00    0.0000000E+00
    0.1062715E+00   -0.4984737E+01    0.0000000E+00    0.0000000E+00    0.0000000E+00    0.0000000E+00    0.0000000E+00
    0.1804044E+00   -0.4984737E+01    0.0000000E+00    0.0000000E+00    0.0000000E+00    0.0000000E+00    0.0000000E+00
    0.2721004E+00   -0.4984737E+01    0.0000000E+00    0.0000000E+00    0.0000000E+00    0.0000000E+00    0.0000000E+00
    0.3798537E+00   -0.4984737E+01    0.0000000E+00    0.0000000E+00    0.0000000E+00    0.0000000E+00    0.0000000E+00
    0.5018948E+00   -0.4984737E+01    0.0000000E+00    0.0000000E+00    0.0000000E+00    0.0000000E+00    0.0000000E+00
    0.6362199E+00   -0.4984737E+01    0.0000000E+00    0.0000000E+00    0.0000000E+00    0.0000000E+00    0.0000000E+00
    0.7806232E+00   -0.4984737E+01    0.0000000E+00    0.0000000E+00    0.0000000E+00    0.0000000E+00    0.0000000E+00
    0.9327337E+00   -0.4984737E+01    0.0000000E+00    0.0000000E+00    0.0000000E+00    0.0000000E+00    0.0000000E+00
    0.1090054E+01   -0.4984737E+01    0.0000000E+00    0.0000000E+00    0.0000000E+00    0.0000000E+00    0.0000000E+00
    0.1250000E+01   -0.4984737E+01    0.0000000E+00    0.0000000E+00    0.0000000E+00    0.0000000E+00    0.0000000E+00
    0.1409946E+01   -0.4984737E+01    0.0000000E+00    0.0000000E+00    0.0000000E+00    0.0000000E+00    0.0000000E+00
    0.1567266E+01   -0.4984737E+01    0.0000000E+00    0.0000000E+00    0.0000000E+00    0.0000000E+00    0.0000000E+00
    0.1719377E+01   -0.4984737E+01    0.0000000E+00    0.0000000E+00    0.0000000E+00    0.0000000E+00    0.0000000E+00
    0.1863780E+01   -0.4984737E+01    0.0000000E+00    0.0000000E+00    0.0000000E+00    0.0000000E+00    0.0000000E+00
    0.1998105E+01   -0.4984737E+01    0.0000000E+00    0.0000000E+00    0.0000000E+00    0.0000000E+00    0.0000000E+00
    0.2120146E+01   -0.4984737E+01    0.0000000E+00    0.0000000E+00    0.0000000E+00    0.0000000E+00    0.0000000E+00
    0.2227900E+01   -0.4984737E+01    0.0000000E+00    0.0000000E+00    0.0000000E+00    0.0000000E+00    0.0000000E+00
    0.2319596E+01   -0.4984737E+01    0.0000000E+00    0.0000000E+00    0.0000000E+00    0.0000000E+00    0.0000000E+00
    0.2393728E+01   -0.4984737E+01    0.0000000E+00    0.0000000E+00    0.0000000E+00    0.0000000E+00    0.0000000E+00
    0.2449080E+01   -0.4984737E+01    0.0000000E+00    0.0000000E+00    0.0000000E+00    0.0000000E+00    0.0000000E+00
    0.2484737E+01   -0.4984737E+01    0.0000000E+00    0.0000000E+00    0.0000000E+00    0.0000000E+00    0.0000000E+00
    0.2500000E+01   -0.4984737E+01    0.2400000E+03    0.4800000E+03    0.9154932E-10    0.0000000E+00    0.9600000E+03
    0.0000000E+00   -0.4949080E+01   -0.2400000E+03   -0.4800000E+03   -0.8309164E-18    0.0000000E+00   -0.9600000E+03
    0.1526257E-01   -0.4949080E+01    0.0000000E+00    0.0000000E+00    0.0000000E+00    0.0000000E+00    0.0000000E+00
    0.5091983E-01   -0.4949080E+01    0.0000000E+00    0.0000000E+00    0.0000000E+00    0.0000000E+00    0.0000000E+00
    0.1062715E+00   -0.4949080E+01    0.0000000E+00    0.0000000E+00    0.0000000E+00    0.0000000E+00    0.0000000E+00
    0.1804044E+00   -0.4949080E+01    0.0000000E+00    0.0000000E+00    0.0000000E+00    0.0000000E+00    0.0000000E+00
    0.2721004E+00   -0.4949080E+01    0.0000000E+00    0.0000000E+00    0.0000000E+00    0.0000000E+00    0.0000000E+00
    0.3798537E+00   -0.4949080E+01    0.0000000E+00    0.0000000E+00    0.0000000E+00    0.0000000E+00    0.0000000E+00
    0.5018948E+00   -0.4949080E+01    0.0000000E+00    0.0000000E+00    0.0000000E+00    0.0000000E+00    0.0000000E+00
    0.6362199E+00   -0.4949080E+01    0.0000000E+00    0.0000000E+00    0.0000000E+00    0.0000000E+00    0.0000000E+00
    0.7806232E+00   -0.4949080E+01    0.0000000E+00    0.0000000E+00    0.0000000E+00    0.0000000E+00    0.0000000E+00
    0.9327337E+00   -0.4949080E+01    0.0000000E+00    0.0000000E+00    0.0000000E+00    0.0000000E+00    0.0000000E+00
    0.1090054E+01   -0.4949080E+01    0.0000000E+00    0.0000000E+00    0.0000000E+00    0.0000000E+00    0.0000000E+00
    0.1250000E+01   -0.4949080E+01    0.0000000E+00    0.0000000E+00    0.0000000E+00    0.0000000E+00    0.0000000E+00
    0.1409946E+01   -0.4949080E+01    0.0000000E+00    0.0000000E+00    0.0000000E+00    0.0000000E+00    0.0000000E+00
    0.1567266E+01   -0.4949080E+01    0.0000000E+00    0.0000000E+00    0.0000000E+00    0.0000000E+00    0.0000000E+00
    0.1719377E+01   -0.4949080E+01    0.0000000E+00    0.0000000E+00    0.0000000E+00    0.0000000E+00    0.0000000E+00
    0.1863780E+01   -0.4949080E+01    0.0000000E+00    0.0000000E+00    0.0000000E+00    0.0000000E+00    0.0000000E+00
    0.1998105E+01   -0.4949080E+01    0.0000000E+00    0.0000000E+00    0.0000000E+00    0.0000000E+00    0.0000000E+00
    0.2120146E+01   -0.4949080E+01    0.0000000E+00    0.0000000E+00    0.0000000E+00    0.0000000E+00    0.0000000E+00
    0.2227900E+01   -0.4949080E+01    0.0000000E+00    0.0000000E+00    0.0000000E+00    0.0000000E+00    0.0000000E+00
    0.2319596E+01   -0.4949080E+01    0.0000000E+00    0.0000000E+00    0.0000000E+00    0.0000000E+00    0.0000000E+00
    0.2393728E+01   -0.4949080E+01    0.0000000E+00    0.0000000E+00    0.0000000E+00    0.0000000E+00    0.0000000E+00
    0.2449080E+01   -0.4949080E+01    0.0000000E+00    0.0000000E+00    0.0000000E+00    0.0000000E+00    0.0000000E+00
    0.2484737E+01   -0.4949080E+01    0.0000000E+00    0.0000000E+00    0.0000000E+00    0.0000000E+00    0.0000000E+00
    0.2500000E+01   -0.4949080E+01    0.2400000E+03    0.4800000E+03   -0.1418037E-09    0.0000000E+00    0.9600000E+03
    0.0000000E+00   -0.4893728E+01   -0.2400000E+03   -0.4800000E+03   -0.1432744E-17    0.0000000E+00   -0.9600000E+03
    0.1526257E-01   -0.4893728E+01    0.0000000E+00    0.0000000E+00    0.0000000E+00    0.0000000E+00    0.0000000E+00
    0.5091983E-01   -0.4893728E+01    0.0000000E+00    0.0000000E+00    0.0000000E+00    0.0000000E+00    0.0000000E+00
    0.1062715E+00   -0.4893728E+01    0.0000000E+00    0.0000000E+00    0.0000000E+00    0.0000000E+00    0.0000000E+00
    0.1804044E+00   -0.4893728E+01    0.0000000E+00    0.0000000E+00    0.0000000E+00    0.0000000E+00    0.0000000E+00
    0.2721004E+00   -0.4893728E+01    0.0000000E+00    0.0000000E+00    0.0000000E+00    0.0000000E+00    0.0000000E+00
    0.3798537E+00   -0.4893728E+01    0.0000000E+00    0.0000000E+00    0.0000000E+00    0.0000000E+00    0.0000000E+00
    0.5018948E+00   -0.4893728E+01    0.0000000E+00    0.0000000E+00    0.0000000E+00    0.0000000E+00    0.0000000E+00
    0.6362199E+00   -0.4893728E+01    0.0000000E+00    0.0000000E+00    0.0000000E+00    0.0000000E+00    0.0000000E+00
    0.7806232E+00   -0.4893728E+01    0.0000000E+00    0.0000000E+00    0.0000000E+00    0.0000000E+00    0.0000000E+00
    0.9327337E+00   -0.4893728E+01    0.0000000E+00    0.0000000E+00    0.0000000E+00    0.0000000E+00    0.0000000E+00
    0.1090054E+01   -0.4893728E+01    0.0000000E+00    0.0000000E+00    0.0000000E+00    0.0000000E+00    0.0000000E+00
    0.1250000E+01   -0.4893728E+01    0.0000000E+00    0.0000000E+00    0.0000000E+00    0.0000000E+00    0.0000000E+00
    0.1409946E+01   -0.4893728E+01    0.0000000E+00    0.0000000E+00    0.0000000E+00    0.0000000E+00    0.0000000E+00
    0.1567266E+01   -0.4893728E+01    0.0000000E+00    0.0000000E+00    0.0000000E+00    0.0000000E+00    0.0000000E+00
    0.1719377E+01   -0.4893728E+01    0.0000000E+00    0.0000000E+00    0.0000000E+00    0.0000000E+00    0.0000000E+00
    0.1863780E+01   -0.4893728E+01    0.0000000E+00    0.0000000E+00    0.0000000E+00    0.0000000E+00    0.0000000E+00
    0.1998105E+01   -0.4893728E+01    0.0000000E+00    0.0000000E+00    0.0000000E+00    0.0000000E+00    0.0000000E+00
    0.2120146E+01   -0.4893728E+01    0.0000000E+00    0.0000000E+00    0.0000000E+00    0.0000000E+00    0.0000000E+00
    0.2227900E+01   -0.4893728E+01    0.0000000E+00    0.0000000E+00    0.0000000E+00    0.0000000E+00    0.0000000E+00
    0.2319596E+01   -0.4893728E+01    0.0000000E+00    0.0000000E+00    0.0000000E+00    0.0000000E+00    0.0000000E+00
    0.2393728E+01   -0.4893728E+01    0.0000000E+00    0.0000000E+00    0.0000000E+00    0.0000000E+00    0.0000000E+00
    0.2449080E+01   -0.4893728E+01    0.0000000E+00    0.0000000E+00    0.0000000E+00    0.0000000E+00    0.0000000E+00
    0.2484737E+01   -0.4893728E+01    0.0000000E+00    0.0000000E+00    0.0000000E+00    0.0000000E+00    0.0000000E+00
    0.2500000E+01   -0.4893728E+01    0.2400000E+03    0.4800000E+03   -0.6683784E-10    0.0000000E+00    0.9600000E+03
    0.0000000E+00   -0.4819596E+01   -0.2400000E+03   -0.4800000E+03   -0.2943701E-17    0.0000000E+00   -0.9600000E+03
    0.1526257E-01   -0.4819596E+01    0.0000000E+00    0.0000000E+00    0.0000000E+00    0.0000000E+00    0.0000000E+00
    0.5091983E-01   -0.4819596E+01    0.0000000E+00    0.0000000E+00    0.0000000E+00    0.0000000E+00    0.0000000E+00
    0.1062715E+00   -0.4819596E+01    0.0000000E+00    0.0000000E+00    0.0000000E+00    0.0000000E+00    0.0000000E+00
    0.1804044E+00   -0.4819596E+01    0.0000000E+00    0.0000000E+00    0.0000000E+00    0.0000000E+00    0.0000000E+00
    0.2721004E+00   -0.4819596E+01    0.0000000E+00    0.0000000E+00    0.0000000E+00    0.0000000E+00    0.0000000E+00
    0.3798537E+00   -0.4819596E+01    0.0000000E+00    0.0000000E+00    0.0000000E+00    0.0000000E+00    0.0000000E+00
    0.5018948E+00   -0.4819596E+01    0.0000000E+00    0.0000000E+00    0.0000000E+00    0.0000000E+00    0.0000000E+00
    0.6362199E+00   -0.4819596E+01    0.0000000E+00    0.0000000E+00    0.0000000E+00    0.0000000E+00    0.0000000E+00
    0.7806232E+00   -0.4819596E+01    0.0000000E+00    0.0000000E+00    0.0000000E+00    0.0000000E+00    0.0000000E+00
    0.9327337E+00   -0.4819596E+01    0.0000000E+00    0.0000000E+00    0.0000000E+00    0.0000000E+00    0.0000000E+00
    0.1090054E+01   -0.4819596E+01    0.0000000E+00    0.0000000E+00    0.0000000E+00    0.0000000E+00    0.0000000E+00
    0.1250000E+01   -0.4819596E+01    0.0000000E+00    0.0000000E+00    0.0000000E+00    0.0000000E+00    0.0000000E+00
    0.1409946E+01   -0.4819596E+01    0.0000000E+00    0.0000000E+00    0.0000000E+00    0.0000000E+00    0.0000000E+00
    0.1567266E+01   -0.4819596E+01    0.0000000E+00    0.0000000E+00    0.0000000E+00    0.0000000E+00    0.0000000E+00
    0.1719377E+01   -0.4819596E+01    0.0000000E+00    0.0000000E+00    0.0000000E+00    0.0000000E+00    0.0000000E+00
    0.1863780E+01   -0.4819596E+01    0.0000000E+00    0.0000000E+00    0.0000000E+00    0.0000000E+00    0.0000000E+00
    0.1998105E+01   -0.4819596E+01    0.0000000E+00    0.0000000E+00    0.0000000E+00    0.0000000E+00    0.0000000E+00
    0.2120146E+01   -0.4819596E+01    0.0000000E+00    0.0000000E+00    0.0000000E+00    0.0000000E+00    0.0000000E+00
    0.2227900E+01   -0.4819596E+01    0.0000000E+00    0.0000000E+00    0.0000000E+00    0.0000000E+00    0.0000000E+00
    0.2319596E+01   -0.4819596E+01    0.0000000E+00    0.0000000E+00    0.0000000E+00    0.0000000E+00    0.0000000E+00
    0.2393728E+01   -0.4819596E+01    0.0000000E+00    0.0000000E+00    0.0000000E+00    0.0000000E+00    0.0000000E+00
    0.2449080E+01   -0.4819596E+01    0.0000000E+00    0.0000000E+00    0.0000000E+00    0.0000000E+00    0.0000000E+00
    0.2484737E+01   -0.4819596E+01    0.0000000E+00    0.0000000E+00    0.0000000E+00    0.0000000E+00    0.0000000E+00
    0.2500000E+01   -0.4819596E+01    0.2400000E+03    0.4800000E+03   -0.2137733E-09    0.0000000E+00    0.9600000E+03
    0.0000000E+00   -0.4727900E+01   -0.2400000E+03   -0.4800000E+03   -0.7064873E-17    0.0000000E+00   -0.9600000E+03
    0.1526257E-01   -0.4727900E+01    0.0000000E+00    0.0000000E+00    0.0000000E+00    0.0000000E+00    0.0000000E+00
    0.5091983E-01   -0.4727900E+01    0.0000000E+00    0.0000000E+00    0.0000000E+00    0.0000000E+00    0.0000000E+00
    0.1062715E+00   -0.4727900E+01    0.0000000E+00    0.0000000E+00    0.0000000E+00    0.0000000E+00    0.0000000E+00
    0.1804044E+00   -0.4727900E+01    0.0000000E+00    0.0000000E+00    0.0000000E+00    0.0000000E+00    0.0000000E+00
    0.2721004E+00   -0.4727900E+01    0.0000000E+00    0.0000000E+00    0.0000000E+00    0.0000000E+00    0.0000000E+00
    0.3798537E+00   -0.4727900E+01    0.0000000E+00    0.0000000E+00    0.0000000E+00    0.0000000E+00    0.0000000E+00
    0.5018948E+00   -0.4727900E+01    0.0000000E+00    0.0000000E+00    0.0000000E+00    0.0000000E+00    0.0000000E+00
    0.6362199E+00   -0.4727900E+01    0.0000000E+00    0.0000000E+00    0.0000000E+00    0.0000000E+00    0.0000000E+00
    0.7806232E+00   -0.4727900E+01    0.0000000E+00    0.0000000E+00    0.0000000E+00    0.0000000E+00    0.0000000E+00
    0.9327337E+00   -0.4727900E+01    0.0000000E+00    0.0000000E+00    0.0000000E+00    0.0000000E+00    0.0000000E+00
    0.1090054E+01   -0.4727900E+01    0.0000000E+00    0.0000000E+00    0.0000000E+00    0.0000000E+00    0.0000000E+00
    0.1250000E+01   -0.4727900E+01    0.0000000E+00    0.0000000E+00    0.0000000E+00    0.0000000E+00    0.0000000E+00
    0.1409946E+01   -0.4727900E+01    0.0000000E+00    0.0000000E+00    0.0000000E+00    0.0000000E+00    0.0000000E+00
    0.1567266E+01   -0.4727900E+01    0.0000000E+00    0.0000000E+00    0.0000000E+00    0.0000000E+00    0.0000000E+00
    0.1719377E+01   -0.4727900E+01    0.0000000E+00    0.0000000E+00    0.0000000E+00    0.0000000E+00    0.0000000E+00
    0.1863780E+01   -0.4727900E+01    0.0000000E+00    0.0000000E+00    0.0000000E+00    0.0000000E+00    0.0000000E+00
    0.1998105E+01   -0.4727900E+01    0.0000000E+00    0.0000000E+00    0.0000000E+00    0.0000000E+00    0.0000000E+00
    0.2120146E+01   -0.4727900E+01    0.0000000E+00    0.0000000E+00    0.0000000E+00    0.0000000E+00    0.0000000E+00
    0.2227900E+01   -0.4727900E+01    0.0000000E+00    0.0000000E+00    0.0000000E+00    0.0000000E+00    0.0000000E+00
    0.2319596E+01   -0.4727900E+01    0.0000000E+00    0.0000000E+00    0.0000000E+00    0.0000000E+00    0.0000000E+00
    0.2393728E+01   -0.4727900E+01    0.0000000E+00    0.0000000E+00    0.0000000E+00    0.0000000E+00    0.0000000E+00
    0.2449080E+01   -0.4727900E+01    0.0000000E+00    0.0000000E+00    0.0000000E+00    0.0000000E+00    0.0000000E+00
    0.2484737E+01   -0.4727900E+01    0.0000000E+00    0.0000000E+00    0.0000000E+00    0.0000000E+00    0.0000000E+00
    0.2500000E+01   -0.4727900E+01    0.2400000E+03    0.4800000E+03   -0.4863955E-09    0.0000000E+00    0.9600000E+03
    0.0000000E+00   -0.4620146E+01   -0.2400000E+03   -0.4800000E+03   -0.1934468E-16    0.0000000E+00   -0.9600000E+03
    0.1526257E-01   -0.4620146E+01    0.0000000E+00    0.0000000E+00    0.0000000E+00    0.0000000E+00    0.0000000E+00
    0.5091983E-01   -0.4620146E+01    0.0000000E+00    0.0000000E+00    0.0000000E+00    0.0000000E+00    0.0000000E+00
    0.1062715E+00   -0.4620146E+01    0.0000000E+00    0.0000000E+00    0.0000000E+00    0.0000000E+00    0.0000000E+00
    0.1804044E+00   -0.4620146E+01    0.0000000E+00    0.0000000E+00    0.0000000E+00    0.0000000E+00    0.0000000E+00
    0.2721004E+00   -0.4620146E+01    0.0000000E+00    0.0000000E+00    0.0000000E+00    0.0000000E+00    0.0000000E+00
    0.3798537E+00   -0.4620146E+01    0.0000000E+00    0.0000000E+00    0.0000000E+00    0.0000000E+00    0.0000000E+00
    0.5018948E+00   -0.4620146E+01    0.0000000E+00    0.0000000E+00    0.0000000E+00    0.0000000E+00    0.0000000E+00
    0.6362199E+00   -0.4620146E+01    0.0000000E+00    0.0000000E+00    0.0000000E+00    0.0000000E+00    0.0000000E+00
    0.7806232E+00   -0.4620146E+01    0.0000000E+00    0.0000000E+00    0.0000000E+00    0.0000000E+00    0.0000000E+00
    0.9327337E+00   -0.4620146E+01    0.0000000E+00    0.0000000E+00    0.0000000E+00    0.0000000E+00    0.0000000E+00
    0.1090054E+01   -0.4620146E+01    0.0000000E+00    0.0000000E+00    0.0000000E+00    0.0000000E+00    0.0000000E+00
    0.1250000E+01   -0.4620146E+01    0.0000000E+00    0.0000000E+00    0.0000000E+00    0.0000000E+00    0.0000000E+00
    0.1409946E+01   -0.4620146E+01    0.0000000E+00    0.0000000E+00    0.0000000E+00    0.0000000E+00    0.0000000E+00
    0.1567266E+01   -0.4620146E+01    0.0000000E+00    0.0000000E+00    0.0000000E+00    0.0000000E+00    0.0000000E+00
    0.1719377E+01   -0.4620146E+01    0.0000000E+00    0.0000000E+00    0.0000000E+00    0.0000000E+00    0.0000000E+00
    0.1863780E+01   -0.4620146E+01    0.0000000E+00    0.0000000E+00    0.0000000E+00    0.0000000E+00    0.0000000E+00
    0.1998105E+01   -0.4620146E+01    0.0000000E+00    0.0000000E+00    0.0000000E+00    0.0000000E+00    0.0000000E+00
    0.2120146E+01   -0.4620146E+01    0.0000000E+00    0.0000000E+00    0.0000000E+00    0.0000000E+00    0.0000000E+00
    0.2227900E+01   -0.4620146E+01    0.0000000E+00    0.0000000E+00    0.0000000E+00    0.0000000E+00    0.0000000E+00
    0.2319596E+01   -0.4620146E+01    0.0000000E+00    0.0000000E+00    0.0000000E+00    0.0000000E+00    0.0000000E+00
    0.2393728E+01   -0.4620146E+01    0.0000000E+00    0.0000000E+00    0.0000000E+00    0.0000000E+00    0.0000000E+00
    0.2449080E+01   -0.4620146E+01    0.0000000E+00    0.0000000E+00    0.0000000E+00    0.0000000E+00    0.0000000E+00
    0.2484737E+01   -0.4620146E+01    0.0000000E+00    0.0000000E+00    0.0000000E+00    0.0000000E+00    0.0000000E+00
    0.2500000E+01   -0.4620146E+01    0.2400000E+03    0.4800000E+03   -0.1347883E-08    0.0000000E+00    0.9600000E+03
    0.0000000E+00   -0.4498105E+01   -0.2400000E+03   -0.4800000E+03   -0.5886338E-16    0.0000000E+00   -0.9600000E+03
    0.1526257E-01   -0.4498105E+01    0.0000000E+00    0.0000000E+00    0.0000000E+00    0.0000000E+00    0.0000000E+00
    0.5091983E-01   -0.4498105E+01    0.0000000E+00    0.0000000E+00    0.0000000E+00    0.0000000E+00    0.0000000E+00
    0.1062715E+00   -0.4498105E+01    0.0000000E+00    0.0000000E+00    0.0000000E+00    0.0000000E+00    0.0000000E+00
    0.1804044E+00   -0.4498105E+01    0.0000000E+00    0.0000000E+00    0.0000000E+00    0.0000000E+00    0.0000000E+00
    0.2721004E+00   -0.4498105E+01    0.0000000E+00    0.0000000E+00    0.0000000E+00    0.0000000E+00    0.0000000E+00
    0.3798537E+00   -0.4498105E+01    0.0000000E+00    0.0000000E+00    0.0000000E+00    0.0000000E+00    0.0000000E+00
    0.5018948E+00   -0.4498105E+01    0.0000000E+00    0.0000000E+00    0.0000000E+00    0.0000000E+00    0.0000000E+00
    0.6362199E+00   -0.4498105E+01    0.0000000E+00    0.0000000E+00    0.0000000E+00    0.0000000E+00    0.0000000E+00
    0.7806232E+00   -0.4498105E+01    0.0000000E+00    0.0000000E+00    0.0000000E+00    0.0000000E+00    0.0000000E+00
    0.9327337E+00   -0.4498105E+01    0.0000000E+00    0.0000000E+00    0.0000000E+00    0.0000000E+00    0.0000000E+00
    0.1090054E+01   -0.4498105E+01    0.0000000E+00    0.0000000E+00    0.0000000E+00    0.0000000E+00    0.0000000E+00
    0.1250000E+01   -0.4498105E+01    0.0000000E+00    0.0000000E+00    0.0000000E+00    0.0000000E+00    0.0000000E+00
    0.1409946E+01   -0.4498105E+01    0.0000000E+00    0.0000000E+00    0.0000000E+00    0.0000000E+00    0.0000000E+00
    0.1567266E+01   -0.4498105E+01    0.0000000E+00    0.0000000E+00    0.0000000E+00    0.0000000E+00    0.0000000E+00
    0.1719377E+01   -0.4498105E+01    0.0000000E+00    0.0000000E+00    0.0000000E+00    0.0000000E+00    0.0000000E+00
    0.1863780E+01   -0.4498105E+01    0.0000000E+00    0.0000000E+00    0.0000000E+00    0.0000000E+00    0.0000000E+00
    0.1998105E+01   -0.4498105E+01    0.0000000E+00    0.0000000E+00    0.0000000E+00    0.0000000E+00    0.0000000E+00
    0.2120146E+01   -0.4498105E+01    0.0000000E+00    0.0000000E+00    0.0000000E+00    0.0000000E+00    0.0000000E+00
    0.2227900E+01   -0.4498105E+01    0.0000000E+00    0.0000000E+00    0.0000000E+00    0.0000000E+00    0.0000000E+00
    0.2319596E+01   -0.4498105E+01    0.0000000E+00    0.0000000E+00    0.0000000E+00    0.0000000E+00    0.0000000E+00
    0.2393728E+01   -0.4498105E+01    0.0000000E+00    0.0000000E+00    0.0000000E+00    0.0000000E+00    0.0000000E+00
    0.2449080E+01   -0.4498105E+01    0.0000000E+00    0.0000000E+00    0.0000000E+00    0.0000000E+00    0.0000000E+00
    0.2484737E+01   -0.4498105E+01    0.0000000E+00    0.0000000E+00    0.0000000E+00    0.0000000E+00    0.0000000E+00
    0.2500000E+01   -0.4498105E+01    0.2400000E+03    0.4800000E+03   -0.4086870E-08    0.0000000E+00    0.9600000E+03
    0.0000000E+00   -0.4363780E+01   -0.2400000E+03   -0.4800000E+03   -0.1935609E-15    0.0000000E+00   -0.9600000E+03
    0.1526257E-01   -0.4363780E+01    0.0000000E+00    0.0000000E+00    0.0000000E+00    0.0000000E+00    0.0000000E+00
    0.5091983E-01   -0.4363780E+01    0.0000000E+00    0.0000000E+00    0.0000000E+00    0.0000000E+00    0.0000000E+00
    0.1062715E+00   -0.4363780E+01    0.0000000E+00    0.0000000E+00    0.0000000E+00    0.0000000E+00    0.0000000E+00
    0.1804044E+00   -0.4363780E+01    0.0000000E+00    0.0000000E+00    0.0000000E+00    0.0000000E+00    0.0000000E+00
    0.2721004E+00   -0.4363780E+01    0.0000000E+00    0.0000000E+00    0.0000000E+00    0.0000000E+00    0.0000000E+00
    0.3798537E+00   -0.4363780E+01    0.0000000E+00    0.0000000E+00    0.0000000E+00    0.0000000E+00    0.0000000E+00
    0.5018948E+00   -0.4363780E+01    0.0000000E+00    0.0000000E+00    0.0000000E+00    0.0000000E+00    0.0000000E+00
    0.6362199E+00   -0.4363780E+01    0.0000000E+00    0.0000000E+00    0.0000000E+00    0.0000000E+00    0.0000000E+00
    0.7806232E+00   -0.4363780E+01    0.0000000E+00    0.0000000E+00    0.0000000E+00    0.0000000E+00    0.0000000E+00
    0.9327337E+00   -0.4363780E+01    0.0000000E+00    0.0000000E+00    0.0000000E+00    0.0000000E+00    0.0000000E+00
    0.1090054E+01   -0.4363780E+01    0.0000000E+00    0.0000000E+00    0.0000000E+00    0.0000000E+00    0.0000000E+00
    0.1250000E+01   -0.4363780E+01    0.0000000E+00    0.0000000E+00    0.0000000E+00    0.0000000E+00    0.0000000E+00
    0.1409946E+01   -0.4363780E+01    0.0000000E+00    0.0000000E+00    0.0000000E+00    0.0000000E+00    0.0000000E+00
    0.1567266E+01   -0.4363780E+01    0.0000000E+00    0.0000000E+00    0.0000000E+00    0.0000000E+00    0.0000000E+00
    0.1719377E+01   -0.4363780E+01    0.0000000E+00    0.0000000E+00    0.0000000E+00    0.0000000E+00    0.0000000E+00
    0.1863780E+01   -0.4363780E+01    0.0000000E+00    0.0000000E+00    0.0000000E+00    0.0000000E+00    0.0000000E+00
    0.1998105E+01   -0.4363780E+01    0.0000000E+00    0.0000000E+00    0.0000000E+00    0.0000000E+00    0.0000000E+00
    0.2120146E+01   -0.4363780E+01    0.0000000E+00    0.0000000E+00    0.0000000E+00    0.0000000E+00    0.0000000E+00
    0.2227900E+01   -0.4363780E+01    0.0000000E+00    0.0000000E+00    0.0000000E+00    0.0000000E+00    0.0000000E+00
    0.2319596E+01   -0.4363780E+01    0.0000000E+00    0.0000000E+00    0.0000000E+00    0.0000000E+00    0.0000000E+00
    0.2393728E+01   -0.4363780E+01    0.0000000E+00    0.0000000E+00    0.0000000E+00    0.0000000E+00    0.0000000E+00
    0.2449080E+01   -0.4363780E+01    0.0000000E+00    0.0000000E+00    0.0000000E+00    0.0000000E+00    0.0000000E+00
    0.2484737E+01   -0.4363780E+01    0.0000000E+00    0.0000000E+00    0.0000000E+00    0.0000000E+00    0.0000000E+00
    0.2500000E+01   -0.4363780E+01    0.2400000E+03    0.4800000E+03   -0.1345612E-07    0.0000000E+00    0.9600000E+03
    0.0000000E+00   -0.4219377E+01   -0.2400000E+03   -0.4800000E+03   -0.6684948E-15    0.0000000E+00   -0.9600000E+03
    0.1526257E-01   -0.4219377E+01    0.0000000E+00    0.0000000E+00    0.0000000E+00    0.0000000E+00    0.0000000E+00
    0.5091983E-01   -0.4219377E+01    0.0000000E+00    0.0000000E+00    0.0000000E+00    0.0000000E+00    0.0000000E+00
    0.1062715E+00   -0.4219377E+01    0.0000000E+00    0.0000000E+00    0.0000000E+00    0.0000000E+00    0.0000000E+00
    0.1804044E+00   -0.4219377E+01    0.0000000E+00    0.0000000E+00    0.0000000E+00    0.0000000E+00    0.0000000E+00
    0.2721004E+00   -0.4219377E+01    0.0000000E+00    0.0000000E+00    0.0000000E+00    0.0000000E+00    0.0000000E+00
    0.3798537E+00   -0.4219377E+01    0.0000000E+00    0.0000000E+00    0.0000000E+00    0.0000000E+00    0.0000000E+00
    0.5018948E+00   -0.4219377E+01    0.0000000E+00    0.0000000E+00    0.0000000E+00    0.0000000E+00    0.0000000E+00
    0.6362199E+00   -0.4219377E+01    0.0000000E+00    0.0000000E+00    0.0000000E+00    0.0000000E+00    0.0000000E+00
    0.7806232E+00   -0.4219377E+01    0.0000000E+00    0.0000000E+00    0.0000000E+00    0.0000000E+00    0.0000000E+00
    0.9327337E+00   -0.4219377E+01    0.0000000E+00    0.0000000E+00    0.0000000E+00    0.0000000E+00    0.0000000E+00
    0.1090054E+01   -0.4219377E+01    0.0000000E+00    0.0000000E+00    0.0000000E+00    0.0000000E+00    0.0000000E+00
    0.1250000E+01   -0.4219377E+01    0.0000000E+00    0.0000000E+00    0.0000000E+00    0.0000000E+00    0.0000000E+00
    0.1409946E+01   -0.4219377E+01    0.0000000E+00    0.0000000E+00    0.0000000E+00    0.0000000E+00    0.0000000E+00
    0.1567266E+01   -0.4219377E+01    0.0000000E+00    0.0000000E+00    0.0000000E+00    0.0000000E+00    0.0000000E+00
    0.1719377E+01   -0.4219377E+01    0.0000000E+00    0.0000000E+00    0.0000000E+00    0.0000000E+00    0.0000000E+00
    0.1863780E+01   -0.4219377E+01    0.0000000E+00    0.0000000E+00    0.0000000E+00    0.0000000E+00    0.0000000E+00
    0.1998105E+01   -0.4219377E+01    0.0000000E+00    0.0000000E+00    0.0000000E+00    0.0000000E+00    0.0000000E+00
    0.2120146E+01   -0.4219377E+01    0.0000000E+00    0.0000000E+00    0.0000000E+00    0.0000000E+00    0.0000000E+00
    0.2227900E+01   -0.4219377E+01    0.0000000E+00    0.0000000E+00    0.0000000E+00    0.0000000E+00    0.0000000E+00
    0.2319596E+01   -0.4219377E+01    0.0000000E+00    0.0000000E+00    0.0000000E+00    0.0000000E+00    0.0000000E+00
    0.2393728E+01   -0.4219377E+01    0.0000000E+00    0.0000000E+00    0.0000000E+00    0.0000000E+00    0.0000000E+00
    0.2449080E+01   -0.4219377E+01    0.0000000E+00    0.0000000E+00    0.0000000E+00    0.0000000E+00    0.0000000E+00
    0.2484737E+01   -0.4219377E+01    0.0000000E+00    0.0000000E+00    0.0000000E+00    0.0000000E+00    0.0000000E+00