 Title="after_inviscid"
 Variables=x,y,e1,e2,e3,e4,e5
 zone T="           1 ",i=          25 ,j=          25
    0.5000000E+01    0.0000000E+00   -0.8680148E+02   -0.1445916E+03   -0.5779014E+02    0.0000000E+00   -0.2456661E+03
    0.5015263E+01    0.0000000E+00   -0.2866763E+01   -0.2866763E+01   -0.5793202E+02    0.0000000E+00   -0.8116609E+01
    0.5050920E+01    0.0000000E+00   -0.9598163E+01   -0.9598163E+01   -0.5937148E+02    0.0000000E+00   -0.2728082E+02
    0.5106272E+01    0.0000000E+00   -0.2028754E+02   -0.2028754E+02   -0.6470118E+02    0.0000000E+00   -0.5847201E+02
    0.5180404E+01    0.0000000E+00   -0.3544383E+02   -0.3544383E+02   -0.7783473E+02    0.0000000E+00   -0.1054550E+03
    0.5272100E+01    0.0000000E+00   -0.5606953E+02   -0.5606953E+02   -0.1036615E+03    0.0000000E+00   -0.1760914E+03
    0.5379854E+01    0.0000000E+00   -0.8303404E+02   -0.8303404E+02   -0.1465628E+03    0.0000000E+00   -0.2803558E+03
    0.5501895E+01    0.0000000E+00   -0.1152352E+03   -0.1152352E+03   -0.2062209E+03    0.0000000E+00   -0.4205242E+03
    0.5636220E+01    0.0000000E+00   -0.1473173E+03   -0.1473173E+03   -0.2718426E+03    0.0000000E+00   -0.5746625E+03
    0.5780623E+01    0.0000000E+00   -0.1698814E+03   -0.1698814E+03   -0.3227231E+03    0.0000000E+00   -0.6923755E+03
    0.5932734E+01    0.0000000E+00   -0.1744142E+03   -0.1744142E+03   -0.3416620E+03    0.0000000E+00   -0.7241569E+03
    0.6090054E+01    0.0000000E+00   -0.1593927E+03   -0.1593927E+03   -0.3294618E+03    0.0000000E+00   -0.6614083E+03
    0.6250000E+01    0.0000000E+00   -0.1310867E+03   -0.1310867E+03   -0.3021859E+03    0.0000000E+00   -0.5386640E+03
    0.6409946E+01    0.0000000E+00   -0.9869913E+02   -0.9869913E+02   -0.2760066E+03    0.0000000E+00   -0.4012430E+03
    0.6567266E+01    0.0000000E+00   -0.6934246E+02   -0.6934246E+02   -0.2581005E+03    0.0000000E+00   -0.2797036E+03
    0.6719377E+01    0.0000000E+00   -0.4632322E+02   -0.4632322E+02   -0.2482026E+03    0.0000000E+00   -0.1860130E+03
    0.6863780E+01    0.0000000E+00   -0.2997390E+02   -0.2997390E+02   -0.2434768E+03    0.0000000E+00   -0.1200961E+03
    0.6998105E+01    0.0000000E+00   -0.1913827E+02   -0.1913827E+02   -0.2414310E+03    0.0000000E+00   -0.7660630E+02
    0.7120146E+01    0.0000000E+00   -0.1228723E+02   -0.1228723E+02   -0.2405942E+03    0.0000000E+00   -0.4916328E+02
    0.7227900E+01    0.0000000E+00   -0.8082340E+01   -0.8082340E+01   -0.2402585E+03    0.0000000E+00   -0.3233344E+02
    0.7319596E+01    0.0000000E+00   -0.5545859E+01   -0.5545859E+01   -0.2401222E+03    0.0000000E+00   -0.2218483E+02
    0.7393728E+01    0.0000000E+00   -0.4035405E+01   -0.4035405E+01   -0.2400649E+03    0.0000000E+00   -0.1614209E+02
    0.7449080E+01    0.0000000E+00   -0.3157922E+01   -0.3157922E+01   -0.2400398E+03    0.0000000E+00   -0.1263200E+02
    0.7484737E+01    0.0000000E+00   -0.2687044E+01   -0.2687044E+01   -0.2400288E+03    0.0000000E+00   -0.1074825E+02
    0.7500000E+01    0.0000000E+00    0.2374937E+03    0.4774927E+03   -0.2375197E+03    0.0000000E+00    0.9499867E+03
    0.5000000E+01    0.1526257E-01   -0.8398546E+02   -0.1390507E+03   -0.7971426E-10    0.0000000E+00   -0.2350156E+03
    0.5015263E+01    0.1526257E-01    0.0000000E+00    0.0000000E+00    0.0000000E+00    0.0000000E+00    0.0000000E+00
    0.5050920E+01    0.1526257E-01    0.0000000E+00    0.0000000E+00    0.0000000E+00    0.0000000E+00    0.0000000E+00
    0.5106272E+01    0.1526257E-01    0.0000000E+00    0.0000000E+00    0.0000000E+00    0.0000000E+00    0.0000000E+00
    0.5180404E+01    0.1526257E-01    0.0000000E+00    0.0000000E+00    0.0000000E+00    0.0000000E+00    0.0000000E+00
    0.5272100E+01    0.1526257E-01    0.0000000E+00    0.0000000E+00    0.0000000E+00    0.0000000E+00    0.0000000E+00
    0.5379854E+01    0.1526257E-01    0.0000000E+00    0.0000000E+00    0.0000000E+00    0.0000000E+00    0.0000000E+00
    0.5501895E+01    0.1526257E-01    0.0000000E+00    0.0000000E+00    0.0000000E+00    0.0000000E+00    0.0000000E+00
    0.5636220E+01    0.1526257E-01    0.0000000E+00    0.0000000E+00    0.0000000E+00    0.0000000E+00    0.0000000E+00
    0.5780623E+01    0.1526257E-01    0.0000000E+00    0.0000000E+00    0.0000000E+00    0.0000000E+00    0.0000000E+00
    0.5932734E+01    0.1526257E-01    0.0000000E+00    0.0000000E+00    0.0000000E+00    0.0000000E+00    0.0000000E+00
    0.6090054E+01    0.1526257E-01    0.0000000E+00    0.0000000E+00    0.0000000E+00    0.0000000E+00    0.0000000E+00
    0.6250000E+01    0.1526257E-01    0.0000000E+00    0.0000000E+00    0.0000000E+00    0.0000000E+00    0.0000000E+00
    0.6409946E+01    0.1526257E-01    0.0000000E+00    0.0000000E+00    0.0000000E+00    0.0000000E+00    0.0000000E+00
    0.6567266E+01    0.1526257E-01    0.0000000E+00    0.0000000E+00    0.0000000E+00    0.0000000E+00    0.0000000E+00
    0.6719377E+01    0.1526257E-01    0.0000000E+00    0.0000000E+00    0.0000000E+00    0.0000000E+00    0.0000000E+00
    0.6863780E+01    0.1526257E-01    0.0000000E+00    0.0000000E+00    0.0000000E+00    0.0000000E+00    0.0000000E+00
    0.6998105E+01    0.1526257E-01    0.0000000E+00    0.0000000E+00    0.0000000E+00    0.0000000E+00    0.0000000E+00
    0.7120146E+01    0.1526257E-01    0.0000000E+00    0.0000000E+00    0.0000000E+00    0.0000000E+00    0.0000000E+00
    0.7227900E+01    0.1526257E-01    0.0000000E+00    0.0000000E+00    0.0000000E+00    0.0000000E+00    0.0000000E+00
    0.7319596E+01    0.1526257E-01    0.0000000E+00    0.0000000E+00    0.0000000E+00    0.0000000E+00    0.0000000E+00
    0.7393728E+01    0.1526257E-01    0.0000000E+00    0.0000000E+00    0.0000000E+00    0.0000000E+00    0.0000000E+00
    0.7449080E+01    0.1526257E-01    0.0000000E+00    0.0000000E+00    0.0000000E+00    0.0000000E+00    0.0000000E+00
    0.7484737E+01    0.1526257E-01    0.0000000E+00    0.0000000E+00    0.0000000E+00    0.0000000E+00    0.0000000E+00
    0.7500000E+01    0.1526257E-01    0.2399840E+03    0.4799676E+03    0.2504754E+01    0.0000000E+00    0.9599326E+03
    0.5000000E+01    0.5091983E-01   -0.7776787E+02   -0.1275412E+03    0.5342958E-10    0.0000000E+00   -0.2124952E+03
    0.5015263E+01    0.5091983E-01    0.0000000E+00    0.0000000E+00    0.0000000E+00    0.0000000E+00    0.0000000E+00
    0.5050920E+01    0.5091983E-01    0.0000000E+00    0.0000000E+00    0.0000000E+00    0.0000000E+00    0.0000000E+00
    0.5106272E+01    0.5091983E-01    0.0000000E+00    0.0000000E+00    0.0000000E+00    0.0000000E+00    0.0000000E+00
    0.5180404E+01    0.5091983E-01    0.0000000E+00    0.0000000E+00    0.0000000E+00    0.0000000E+00    0.0000000E+00
    0.5272100E+01    0.5091983E-01    0.0000000E+00    0.0000000E+00    0.0000000E+00    0.0000000E+00    0.0000000E+00
    0.5379854E+01    0.5091983E-01    0.0000000E+00    0.0000000E+00    0.0000000E+00    0.0000000E+00    0.0000000E+00
    0.5501895E+01    0.5091983E-01    0.0000000E+00    0.0000000E+00    0.0000000E+00    0.0000000E+00    0.0000000E+00
    0.5636220E+01    0.5091983E-01    0.0000000E+00    0.0000000E+00    0.0000000E+00    0.0000000E+00    0.0000000E+00
    0.5780623E+01    0.5091983E-01    0.0000000E+00    0.0000000E+00    0.0000000E+00    0.0000000E+00    0.0000000E+00
    0.5932734E+01    0.5091983E-01    0.0000000E+00    0.0000000E+00    0.0000000E+00    0.0000000E+00    0.0000000E+00
    0.6090054E+01    0.5091983E-01    0.0000000E+00    0.0000000E+00    0.0000000E+00    0.0000000E+00    0.0000000E+00
    0.6250000E+01    0.5091983E-01    0.0000000E+00    0.0000000E+00    0.0000000E+00    0.0000000E+00    0.0000000E+00
    0.6409946E+01    0.5091983E-01    0.0000000E+00    0.0000000E+00    0.0000000E+00    0.0000000E+00    0.0000000E+00
    0.6567266E+01    0.5091983E-01    0.0000000E+00    0.0000000E+00    0.0000000E+00    0.0000000E+00    0.0000000E+00
    0.6719377E+01    0.5091983E-01    0.0000000E+00    0.0000000E+00    0.0000000E+00    0.0000000E+00    0.0000000E+00
    0.6863780E+01    0.5091983E-01    0.0000000E+00    0.0000000E+00    0.0000000E+00    0.0000000E+00    0.0000000E+00
    0.6998105E+01    0.5091983E-01    0.0000000E+00    0.0000000E+00    0.0000000E+00    0.0000000E+00    0.0000000E+00
    0.7120146E+01    0.5091983E-01    0.0000000E+00    0.0000000E+00    0.0000000E+00    0.0000000E+00    0.0000000E+00
    0.7227900E+01    0.5091983E-01    0.0000000E+00    0.0000000E+00    0.0000000E+00    0.0000000E+00    0.0000000E+00
    0.7319596E+01    0.5091983E-01    0.0000000E+00    0.0000000E+00    0.0000000E+00    0.0000000E+00    0.0000000E+00
    0.7393728E+01    0.5091983E-01    0.0000000E+00    0.0000000E+00    0.0000000E+00    0.0000000E+00    0.0000000E+00
    0.7449080E+01    0.5091983E-01    0.0000000E+00    0.0000000E+00    0.0000000E+00    0.0000000E+00    0.0000000E+00
    0.7484737E+01    0.5091983E-01    0.0000000E+00    0.0000000E+00    0.0000000E+00    0.0000000E+00    0.0000000E+00
    0.7500000E+01    0.5091983E-01    0.2399484E+03    0.4798964E+03    0.2498480E+01    0.0000000E+00    0.9597545E+03
    0.5000000E+01    0.1062715E+00   -0.6896748E+02   -0.1133811E+03   -0.2764227E-10    0.0000000E+00   -0.1830995E+03
    0.5015263E+01    0.1062715E+00    0.0000000E+00    0.0000000E+00    0.0000000E+00    0.0000000E+00    0.0000000E+00
    0.5050920E+01    0.1062715E+00    0.0000000E+00    0.0000000E+00    0.0000000E+00    0.0000000E+00    0.0000000E+00
    0.5106272E+01    0.1062715E+00    0.0000000E+00    0.0000000E+00    0.0000000E+00    0.0000000E+00    0.0000000E+00
    0.5180404E+01    0.1062715E+00    0.0000000E+00    0.0000000E+00    0.0000000E+00    0.0000000E+00    0.0000000E+00
    0.5272100E+01    0.1062715E+00    0.0000000E+00    0.0000000E+00    0.0000000E+00    0.0000000E+00    0.0000000E+00
    0.5379854E+01    0.1062715E+00    0.0000000E+00    0.0000000E+00    0.0000000E+00    0.0000000E+00    0.0000000E+00
    0.5501895E+01    0.1062715E+00    0.0000000E+00    0.0000000E+00    0.0000000E+00    0.0000000E+00    0.0000000E+00
    0.5636220E+01    0.1062715E+00    0.0000000E+00    0.0000000E+00    0.0000000E+00    0.0000000E+00    0.0000000E+00
    0.5780623E+01    0.1062715E+00    0.0000000E+00    0.0000000E+00    0.0000000E+00    0.0000000E+00    0.0000000E+00
    0.5932734E+01    0.1062715E+00    0.0000000E+00    0.0000000E+00    0.0000000E+00    0.0000000E+00    0.0000000E+00
    0.6090054E+01    0.1062715E+00    0.0000000E+00    0.0000000E+00    0.0000000E+00    0.0000000E+00    0.0000000E+00
    0.6250000E+01    0.1062715E+00    0.0000000E+00    0.0000000E+00    0.0000000E+00    0.0000000E+00    0.0000000E+00
    0.6409946E+01    0.1062715E+00    0.0000000E+00    0.0000000E+00    0.0000000E+00    0.0000000E+00    0.0000000E+00
    0.6567266E+01    0.1062715E+00    0.0000000E+00    0.0000000E+00    0.0000000E+00    0.0000000E+00    0.0000000E+00
    0.6719377E+01    0.1062715E+00    0.0000000E+00    0.0000000E+00    0.0000000E+00    0.0000000E+00    0.0000000E+00
    0.6863780E+01    0.1062715E+00    0.0000000E+00    0.0000000E+00    0.0000000E+00    0.0000000E+00    0.0000000E+00
    0.6998105E+01    0.1062715E+00    0.0000000E+00    0.0000000E+00    0.0000000E+00    0.0000000E+00    0.0000000E+00
    0.7120146E+01    0.1062715E+00    0.0000000E+00    0.0000000E+00    0.0000000E+00    0.0000000E+00    0.0000000E+00
    0.7227900E+01    0.1062715E+00    0.0000000E+00    0.0000000E+00    0.0000000E+00    0.0000000E+00    0.0000000E+00
    0.7319596E+01    0.1062715E+00    0.0000000E+00    0.0000000E+00    0.0000000E+00    0.0000000E+00    0.0000000E+00
    0.7393728E+01    0.1062715E+00    0.0000000E+00    0.0000000E+00    0.0000000E+00    0.0000000E+00    0.0000000E+00
    0.7449080E+01    0.1062715E+00    0.0000000E+00    0.0000000E+00    0.0000000E+00    0.0000000E+00    0.0000000E+00
    0.7484737E+01    0.1062715E+00    0.0000000E+00    0.0000000E+00    0.0000000E+00    0.0000000E+00    0.0000000E+00
    0.7500000E+01    0.1062715E+00    0.2398940E+03    0.4797877E+03    0.2476274E+01    0.0000000E+00    0.9594824E+03
    0.5000000E+01    0.1804044E+00   -0.5838651E+02   -0.1007774E+03    0.1575579E-10    0.0000000E+00   -0.1516605E+03
    0.5015263E+01    0.1804044E+00    0.0000000E+00    0.0000000E+00    0.0000000E+00    0.0000000E+00    0.0000000E+00
    0.5050920E+01    0.1804044E+00    0.0000000E+00    0.0000000E+00    0.0000000E+00    0.0000000E+00    0.0000000E+00
    0.5106272E+01    0.1804044E+00    0.0000000E+00    0.0000000E+00    0.0000000E+00    0.0000000E+00    0.0000000E+00
    0.5180404E+01    0.1804044E+00    0.0000000E+00    0.0000000E+00    0.0000000E+00    0.0000000E+00    0.0000000E+00
    0.5272100E+01    0.1804044E+00    0.0000000E+00    0.0000000E+00    0.0000000E+00    0.0000000E+00    0.0000000E+00
    0.5379854E+01    0.1804044E+00    0.0000000E+00    0.0000000E+00    0.0000000E+00    0.0000000E+00    0.0000000E+00
    0.5501895E+01    0.1804044E+00    0.0000000E+00    0.0000000E+00    0.0000000E+00    0.0000000E+00    0.0000000E+00
    0.5636220E+01    0.1804044E+00    0.0000000E+00    0.0000000E+00    0.0000000E+00    0.0000000E+00    0.0000000E+00
    0.5780623E+01    0.1804044E+00    0.0000000E+00    0.0000000E+00    0.0000000E+00    0.0000000E+00    0.0000000E+00
    0.5932734E+01    0.1804044E+00    0.0000000E+00    0.0000000E+00    0.0000000E+00    0.0000000E+00    0.0000000E+00
    0.6090054E+01    0.1804044E+00    0.0000000E+00    0.0000000E+00    0.0000000E+00    0.0000000E+00    0.0000000E+00
    0.6250000E+01    0.1804044E+00    0.0000000E+00    0.0000000E+00    0.0000000E+00    0.0000000E+00    0.0000000E+00
    0.6409946E+01    0.1804044E+00    0.0000000E+00    0.0000000E+00    0.0000000E+00    0.0000000E+00    0.0000000E+00
    0.6567266E+01    0.1804044E+00    0.0000000E+00    0.0000000E+00    0.0000000E+00    0.0000000E+00    0.0000000E+00
    0.6719377E+01    0.1804044E+00    0.0000000E+00    0.0000000E+00    0.0000000E+00    0.0000000E+00    0.0000000E+00
    0.6863780E+01    0.1804044E+00    0.0000000E+00    0.0000000E+00    0.0000000E+00    0.0000000E+00    0.0000000E+00
    0.6998105E+01    0.1804044E+00    0.0000000E+00    0.0000000E+00    0.0000000E+00    0.0000000E+00    0.0000000E+00
    0.7120146E+01    0.1804044E+00    0.0000000E+00    0.0000000E+00    0.0000000E+00    0.0000000E+00    0.0000000E+00
    0.7227900E+01    0.1804044E+00    0.0000000E+00    0.0000000E+00    0.0000000E+00    0.0000000E+00    0.0000000E+00
    0.7319596E+01    0.1804044E+00    0.0000000E+00    0.0000000E+00    0.0000000E+00    0.0000000E+00    0.0000000E+00
    0.7393728E+01    0.1804044E+00    0.0000000E+00    0.0000000E+00    0.0000000E+00    0.0000000E+00    0.0000000E+00
    0.7449080E+01    0.1804044E+00    0.0000000E+00    0.0000000E+00    0.0000000E+00    0.0000000E+00    0.0000000E+00
    0.7484737E+01    0.1804044E+00    0.0000000E+00    0.0000000E+00    0.0000000E+00    0.0000000E+00    0.0000000E+00
    0.7500000E+01    0.1804044E+00    0.2398243E+03    0.4796484E+03    0.2423499E+01    0.0000000E+00    0.9591336E+03
    0.5000000E+01    0.2721004E+00   -0.4651164E+02   -0.9410366E+02   -0.1335964E-10    0.0000000E+00   -0.1206514E+03
    0.5015263E+01    0.2721004E+00    0.0000000E+00    0.0000000E+00    0.0000000E+00    0.0000000E+00    0.0000000E+00
    0.5050920E+01    0.2721004E+00    0.0000000E+00    0.0000000E+00    0.0000000E+00    0.0000000E+00    0.0000000E+00
    0.5106272E+01    0.2721004E+00    0.0000000E+00    0.0000000E+00    0.0000000E+00    0.0000000E+00    0.0000000E+00
    0.5180404E+01    0.2721004E+00    0.0000000E+00    0.0000000E+00    0.0000000E+00    0.0000000E+00    0.0000000E+00
    0.5272100E+01    0.2721004E+00    0.0000000E+00    0.0000000E+00    0.0000000E+00    0.0000000E+00    0.0000000E+00
    0.5379854E+01    0.2721004E+00    0.0000000E+00    0.0000000E+00    0.0000000E+00    0.0000000E+00    0.0000000E+00
    0.5501895E+01    0.2721004E+00    0.0000000E+00    0.0000000E+00    0.0000000E+00    0.0000000E+00    0.0000000E+00
    0.5636220E+01    0.2721004E+00    0.0000000E+00    0.0000000E+00    0.0000000E+00    0.0000000E+00    0.0000000E+00
    0.5780623E+01    0.2721004E+00    0.0000000E+00    0.0000000E+00    0.0000000E+00    0.0000000E+00    0.0000000E+00
    0.5932734E+01    0.2721004E+00    0.0000000E+00    0.0000000E+00    0.0000000E+00    0.0000000E+00    0.0000000E+00
    0.6090054E+01    0.2721004E+00    0.0000000E+00    0.0000000E+00    0.0000000E+00    0.0000000E+00    0.0000000E+00
    0.6250000E+01    0.2721004E+00    0.0000000E+00    0.0000000E+00    0.0000000E+00    0.0000000E+00    0.0000000E+00
    0.6409946E+01    0.2721004E+00    0.0000000E+00    0.0000000E+00    0.0000000E+00    0.0000000E+00    0.0000000E+00
    0.6567266E+01    0.2721004E+00    0.0000000E+00    0.0000000E+00    0.0000000E+00    0.0000000E+00    0.0000000E+00
    0.6719377E+01    0.2721004E+00    0.0000000E+00    0.0000000E+00    0.0000000E+00    0.0000000E+00    0.0000000E+00
    0.6863780E+01    0.2721004E+00    0.0000000E+00    0.0000000E+00    0.0000000E+00    0.0000000E+00    0.0000000E+00
    0.6998105E+01    0.2721004E+00    0.0000000E+00    0.0000000E+00    0.0000000E+00    0.0000000E+00    0.0000000E+00
    0.7120146E+01    0.2721004E+00    0.0000000E+00    0.0000000E+00    0.0000000E+00    0.0000000E+00    0.0000000E+00
    0.7227900E+01    0.2721004E+00    0.0000000E+00    0.0000000E+00    0.0000000E+00    0.0000000E+00    0.0000000E+00
    0.7319596E+01    0.2721004E+00    0.0000000E+00    0.0000000E+00    0.0000000E+00    0.0000000E+00    0.0000000E+00
    0.7393728E+01    0.2721004E+00    0.0000000E+00    0.0000000E+00    0.0000000E+00    0.0000000E+00    0.0000000E+00
    0.7449080E+01    0.2721004E+00    0.0000000E+00    0.0000000E+00    0.0000000E+00    0.0000000E+00    0.0000000E+00
    0.7484737E+01    0.2721004E+00    0.0000000E+00    0.0000000E+00    0.0000000E+00    0.0000000E+00    0.0000000E+00
    0.7500000E+01    0.2721004E+00    0.2397461E+03    0.4794922E+03    0.2324241E+01    0.0000000E+00    0.9587420E+03
    0.5000000E+01    0.3798537E+00   -0.3370578E+02   -0.9723458E+02    0.1298247E-10    0.0000000E+00   -0.8982998E+02
    0.5015263E+01    0.3798537E+00    0.0000000E+00    0.0000000E+00    0.0000000E+00    0.0000000E+00    0.0000000E+00
    0.5050920E+01    0.3798537E+00    0.0000000E+00    0.0000000E+00    0.0000000E+00    0.0000000E+00    0.0000000E+00
    0.5106272E+01    0.3798537E+00    0.0000000E+00    0.0000000E+00    0.0000000E+00    0.0000000E+00    0.0000000E+00
    0.5180404E+01    0.3798537E+00    0.0000000E+00    0.0000000E+00    0.0000000E+00    0.0000000E+00    0.0000000E+00
    0.5272100E+01    0.3798537E+00    0.0000000E+00    0.0000000E+00    0.0000000E+00    0.0000000E+00    0.0000000E+00
    0.5379854E+01    0.3798537E+00    0.0000000E+00    0.0000000E+00    0.0000000E+00    0.0000000E+00    0.0000000E+00
    0.5501895E+01    0.3798537E+00    0.0000000E+00    0.0000000E+00    0.0000000E+00    0.0000000E+00    0.0000000E+00
    0.5636220E+01    0.3798537E+00    0.0000000E+00    0.0000000E+00    0.0000000E+00    0.0000000E+00    0.0000000E+00
    0.5780623E+01    0.3798537E+00    0.0000000E+00    0.0000000E+00    0.0000000E+00    0.0000000E+00    0.0000000E+00
    0.5932734E+01    0.3798537E+00    0.0000000E+00    0.0000000E+00    0.0000000E+00    0.0000000E+00    0.0000000E+00
    0.6090054E+01    0.3798537E+00    0.0000000E+00    0.0000000E+00    0.0000000E+00    0.0000000E+00    0.0000000E+00
    0.6250000E+01    0.3798537E+00    0.0000000E+00    0.0000000E+00    0.0000000E+00    0.0000000E+00    0.0000000E+00
    0.6409946E+01    0.3798537E+00    0.0000000E+00    0.0000000E+00    0.0000000E+00    0.0000000E+00    0.0000000E+00
    0.6567266E+01    0.3798537E+00    0.0000000E+00    0.0000000E+00    0.0000000E+00    0.0000000E+00    0.0000000E+00
    0.6719377E+01    0.3798537E+00    0.0000000E+00    0.0000000E+00    0.0000000E+00    0.0000000E+00    0.0000000E+00
    0.6863780E+01    0.3798537E+00    0.0000000E+00    0.0000000E+00    0.0000000E+00    0.0000000E+00    0.0000000E+00
    0.6998105E+01    0.3798537E+00    0.0000000E+00    0.0000000E+00    0.0000000E+00    0.0000000E+00    0.0000000E+00
    0.7120146E+01    0.3798537E+00    0.0000000E+00    0.0000000E+00    0.0000000E+00    0.0000000E+00    0.0000000E+00
    0.7227900E+01    0.3798537E+00    0.0000000E+00    0.0000000E+00    0.0000000E+00    0.0000000E+00    0.0000000E+00
    0.7319596E+01    0.3798537E+00    0.0000000E+00    0.0000000E+00    0.0000000E+00    0.0000000E+00    0.0000000E+00
    0.7393728E+01    0.3798537E+00    0.0000000E+00    0.0000000E+00    0.0000000E+00    0.0000000E+00    0.0000000E+00
    0.7449080E+01    0.3798537E+00    0.0000000E+00    0.0000000E+00    0.0000000E+00    0.0000000E+00    0.0000000E+00
    0.7484737E+01    0.3798537E+00    0.0000000E+00    0.0000000E+00    0.0000000E+00    0.0000000E+00    0.0000000E+00
    0.7500000E+01    0.3798537E+00    0.2396699E+03    0.4793400E+03    0.2165877E+01    0.0000000E+00    0.9583597E+03
    0.5000000E+01    0.5018948E+00   -0.2131297E+02   -0.1122988E+03   -0.1416672E-10    0.0000000E+00   -0.5979047E+02
    0.5015263E+01    0.5018948E+00    0.0000000E+00    0.0000000E+00    0.0000000E+00    0.0000000E+00    0.0000000E+00
    0.5050920E+01    0.5018948E+00    0.0000000E+00    0.0000000E+00    0.0000000E+00    0.0000000E+00    0.0000000E+00
    0.5106272E+01    0.5018948E+00    0.0000000E+00    0.0000000E+00    0.0000000E+00    0.0000000E+00    0.0000000E+00
    0.5180404E+01    0.5018948E+00    0.0000000E+00    0.0000000E+00    0.0000000E+00    0.0000000E+00    0.0000000E+00
    0.5272100E+01    0.5018948E+00    0.0000000E+00    0.0000000E+00    0.0000000E+00    0.0000000E+00    0.0000000E+00
    0.5379854E+01    0.5018948E+00    0.0000000E+00    0.0000000E+00    0.0000000E+00    0.0000000E+00    0.0000000E+00
    0.5501895E+01    0.5018948E+00    0.0000000E+00    0.0000000E+00    0.0000000E+00    0.0000000E+00    0.0000000E+00
    0.5636220E+01    0.5018948E+00    0.0000000E+00    0.0000000E+00    0.0000000E+00    0.0000000E+00    0.0000000E+00
    0.5780623E+01    0.5018948E+00    0.0000000E+00    0.0000000E+00    0.0000000E+00    0.0000000E+00    0.0000000E+00
    0.5932734E+01    0.5018948E+00    0.0000000E+00    0.0000000E+00    0.0000000E+00    0.0000000E+00    0.0000000E+00
    0.6090054E+01    0.5018948E+00    0.0000000E+00    0.0000000E+00    0.0000000E+00    0.0000000E+00    0.0000000E+00
    0.6250000E+01    0.5018948E+00    0.0000000E+00    0.0000000E+00    0.0000000E+00    0.0000000E+00    0.0000000E+00
    0.6409946E+01    0.5018948E+00    0.0000000E+00    0.0000000E+00    0.0000000E+00    0.0000000E+00    0.0000000E+00
    0.6567266E+01    0.5018948E+00    0.0000000E+00    0.0000000E+00    0.0000000E+00    0.0000000E+00    0.0000000E+00
    0.6719377E+01    0.5018948E+00    0.0000000E+00    0.0000000E+00    0.0000000E+00    0.0000000E+00    0.0000000E+00
    0.6863780E+01    0.5018948E+00    0.0000000E+00    0.0000000E+00    0.0000000E+00    0.0000000E+00    0.0000000E+00
    0.6998105E+01    0.5018948E+00    0.0000000E+00    0.0000000E+00    0.0000000E+00    0.0000000E+00    0.0000000E+00
    0.7120146E+01    0.5018948E+00    0.0000000E+00    0.0000000E+00    0.0000000E+00    0.0000000E+00    0.0000000E+00
    0.7227900E+01    0.5018948E+00    0.0000000E+00    0.0000000E+00    0.0000000E+00    0.0000000E+00    0.0000000E+00
    0.7319596E+01    0.5018948E+00    0.0000000E+00    0.0000000E+00    0.0000000E+00    0.0000000E+00    0.0000000E+00
    0.7393728E+01    0.5018948E+00    0.0000000E+00    0.0000000E+00    0.0000000E+00    0.0000000E+00    0.0000000E+00
    0.7449080E+01    0.5018948E+00    0.0000000E+00    0.0000000E+00    0.0000000E+00    0.0000000E+00    0.0000000E+00
    0.7484737E+01    0.5018948E+00    0.0000000E+00    0.0000000E+00    0.0000000E+00    0.0000000E+00    0.0000000E+00
    0.7500000E+01    0.5018948E+00    0.2396086E+03    0.4792176E+03    0.1944412E+01    0.0000000E+00    0.9580514E+03
    0.5000000E+01    0.6362199E+00   -0.1313789E+02   -0.1376632E+03    0.1382799E-10    0.0000000E+00   -0.3918670E+02
    0.5015263E+01    0.6362199E+00    0.0000000E+00    0.0000000E+00    0.0000000E+00    0.0000000E+00    0.0000000E+00
    0.5050920E+01    0.6362199E+00    0.0000000E+00    0.0000000E+00    0.0000000E+00    0.0000000E+00    0.0000000E+00
    0.5106272E+01    0.6362199E+00    0.0000000E+00    0.0000000E+00    0.0000000E+00    0.0000000E+00    0.0000000E+00
    0.5180404E+01    0.6362199E+00    0.0000000E+00    0.0000000E+00    0.0000000E+00    0.0000000E+00    0.0000000E+00
    0.5272100E+01    0.6362199E+00    0.0000000E+00    0.0000000E+00    0.0000000E+00    0.0000000E+00    0.0000000E+00
    0.5379854E+01    0.6362199E+00    0.0000000E+00    0.0000000E+00    0.0000000E+00    0.0000000E+00    0.0000000E+00
    0.5501895E+01    0.6362199E+00    0.0000000E+00    0.0000000E+00    0.0000000E+00    0.0000000E+00    0.0000000E+00
    0.5636220E+01    0.6362199E+00    0.0000000E+00    0.0000000E+00    0.0000000E+00    0.0000000E+00    0.0000000E+00
    0.5780623E+01    0.6362199E+00    0.0000000E+00    0.0000000E+00    0.0000000E+00    0.0000000E+00    0.0000000E+00
    0.5932734E+01    0.6362199E+00    0.0000000E+00    0.0000000E+00    0.0000000E+00    0.0000000E+00    0.0000000E+00
    0.6090054E+01    0.6362199E+00    0.0000000E+00    0.0000000E+00    0.0000000E+00    0.0000000E+00    0.0000000E+00
    0.6250000E+01    0.6362199E+00    0.0000000E+00    0.0000000E+00    0.0000000E+00    0.0000000E+00    0.0000000E+00
    0.6409946E+01    0.6362199E+00    0.0000000E+00    0.0000000E+00    0.0000000E+00    0.0000000E+00    0.0000000E+00
    0.6567266E+01    0.6362199E+00    0.0000000E+00    0.0000000E+00    0.0000000E+00    0.0000000E+00    0.0000000E+00
    0.6719377E+01    0.6362199E+00    0.0000000E+00    0.0000000E+00    0.0000000E+00    0.0000000E+00    0.0000000E+00
    0.6863780E+01    0.6362199E+00    0.0000000E+00    0.0000000E+00    0.0000000E+00    0.0000000E+00    0.0000000E+00
    0.6998105E+01    0.6362199E+00    0.0000000E+00    0.0000000E+00    0.0000000E+00    0.0000000E+00    0.0000000E+00
    0.7120146E+01    0.6362199E+00    0.0000000E+00    0.0000000E+00    0.0000000E+00    0.0000000E+00    0.0000000E+00
    0.7227900E+01    0.6362199E+00    0.0000000E+00    0.0000000E+00    0.0000000E+00    0.0000000E+00    0.0000000E+00
    0.7319596E+01    0.6362199E+00    0.0000000E+00    0.0000000E+00    0.0000000E+00    0.0000000E+00    0.0000000E+00
    0.7393728E+01    0.6362199E+00    0.0000000E+00    0.0000000E+00    0.0000000E+00    0.0000000E+00    0.0000000E+00
    0.7449080E+01    0.6362199E+00    0.0000000E+00    0.0000000E+00    0.0000000E+00    0.0000000E+00    0.0000000E+00
    0.7484737E+01    0.6362199E+00    0.0000000E+00    0.0000000E+00    0.0000000E+00    0.0000000E+00    0.0000000E+00
    0.7500000E+01    0.6362199E+00    0.2395743E+03    0.4791492E+03    0.1668524E+01    0.0000000E+00    0.9578783E+03
    0.5000000E+01    0.7806232E+00   -0.1515915E+02   -0.1680009E+03   -0.1349349E-10    0.0000000E+00   -0.4786602E+02
    0.5015263E+01    0.7806232E+00    0.0000000E+00    0.0000000E+00    0.0000000E+00    0.0000000E+00    0.0000000E+00
    0.5050920E+01    0.7806232E+00    0.0000000E+00    0.0000000E+00    0.0000000E+00    0.0000000E+00    0.0000000E+00
    0.5106272E+01    0.7806232E+00    0.0000000E+00    0.0000000E+00    0.0000000E+00    0.0000000E+00    0.0000000E+00
    0.5180404E+01    0.7806232E+00    0.0000000E+00    0.0000000E+00    0.0000000E+00    0.0000000E+00    0.0000000E+00
    0.5272100E+01    0.7806232E+00    0.0000000E+00    0.0000000E+00    0.0000000E+00    0.0000000E+00    0.0000000E+00
    0.5379854E+01    0.7806232E+00    0.0000000E+00    0.0000000E+00    0.0000000E+00    0.0000000E+00    0.0000000E+00
    0.5501895E+01    0.7806232E+00    0.0000000E+00    0.0000000E+00    0.0000000E+00    0.0000000E+00    0.0000000E+00
    0.5636220E+01    0.7806232E+00    0.0000000E+00    0.0000000E+00    0.0000000E+00    0.0000000E+00    0.0000000E+00
    0.5780623E+01    0.7806232E+00    0.0000000E+00    0.0000000E+00    0.0000000E+00    0.0000000E+00    0.0000000E+00
    0.5932734E+01    0.7806232E+00    0.0000000E+00    0.0000000E+00    0.0000000E+00    0.0000000E+00    0.0000000E+00
    0.6090054E+01    0.7806232E+00    0.0000000E+00    0.0000000E+00    0.0000000E+00    0.0000000E+00    0.0000000E+00
    0.6250000E+01    0.7806232E+00    0.0000000E+00    0.0000000E+00    0.0000000E+00    0.0000000E+00    0.0000000E+00
    0.6409946E+01    0.7806232E+00    0.0000000E+00    0.0000000E+00    0.0000000E+00    0.0000000E+00    0.0000000E+00
    0.6567266E+01    0.7806232E+00    0.0000000E+00    0.0000000E+00    0.0000000E+00    0.0000000E+00    0.0000000E+00
    0.6719377E+01    0.7806232E+00    0.0000000E+00    0.0000000E+00    0.0000000E+00    0.0000000E+00    0.0000000E+00
    0.6863780E+01    0.7806232E+00    0.0000000E+00    0.0000000E+00    0.0000000E+00    0.0000000E+00    0.0000000E+00
    0.6998105E+01    0.7806232E+00    0.0000000E+00    0.0000000E+00    0.0000000E+00    0.0000000E+00    0.0000000E+00
    0.7120146E+01    0.7806232E+00    0.0000000E+00    0.0000000E+00    0.0000000E+00    0.0000000E+00    0.0000000E+00
    0.7227900E+01    0.7806232E+00    0.0000000E+00    0.0000000E+00    0.0000000E+00    0.0000000E+00    0.0000000E+00
    0.7319596E+01    0.7806232E+00    0.0000000E+00    0.0000000E+00    0.0000000E+00    0.0000000E+00    0.0000000E+00
    0.7393728E+01    0.7806232E+00    0.0000000E+00    0.0000000E+00    0.0000000E+00    0.0000000E+00    0.0000000E+00
    0.7449080E+01    0.7806232E+00    0.0000000E+00    0.0000000E+00    0.0000000E+00    0.0000000E+00    0.0000000E+00
    0.7484737E+01    0.7806232E+00    0.0000000E+00    0.0000000E+00    0.0000000E+00    0.0000000E+00    0.0000000E+00