 Title="after_elm"
 Variables=x,y,e1,e2,e3,e4,e5
 zone T="           1 ",i=          25 ,j=          25
    0.5000000E+01    0.0000000E+00    0.1117826E-06   -0.2357935E-05    0.7823525E+00    0.0000000E+00    0.2881966E-04
    0.5015263E+01    0.0000000E+00    0.2770632E-01    0.2770800E-01    0.7831730E+00    0.0000000E+00    0.1042633E+00
    0.5050920E+01    0.0000000E+00    0.9233384E-01    0.9233263E-01    0.7914707E+00    0.0000000E+00    0.3482798E+00
    0.5106272E+01    0.0000000E+00    0.1918224E+00    0.1918231E+00    0.8210627E+00    0.0000000E+00    0.7295778E+00
    0.5180404E+01    0.0000000E+00    0.3215878E+00    0.3215871E+00    0.8868134E+00    0.0000000E+00    0.1245915E+01
    0.5272100E+01    0.0000000E+00    0.4709500E+00    0.4709501E+00    0.9888682E+00    0.0000000E+00    0.1878862E+01
    0.5379854E+01    0.0000000E+00    0.6173545E+00    0.6173543E+00    0.1087081E+01    0.0000000E+00    0.2545322E+01
    0.5501895E+01    0.0000000E+00    0.7226075E+00    0.7226073E+00    0.1084521E+01    0.0000000E+00    0.3037597E+01
    0.5636220E+01    0.0000000E+00    0.7432760E+00    0.7432763E+00    0.8661617E+00    0.0000000E+00    0.3068107E+01
    0.5780623E+01    0.0000000E+00    0.6598148E+00    0.6598143E+00    0.4074107E+00    0.0000000E+00    0.2507067E+01
    0.5932734E+01    0.0000000E+00    0.4997462E+00    0.4997468E+00   -0.1541136E+00    0.0000000E+00    0.1587561E+01
    0.6090054E+01    0.0000000E+00    0.3227558E+00    0.3227553E+00   -0.6066819E+00    0.0000000E+00    0.7366473E+00
    0.6250000E+01    0.0000000E+00    0.1795322E+00    0.1795328E+00   -0.8267766E+00    0.0000000E+00    0.2114712E+00
    0.6409946E+01    0.0000000E+00    0.8758662E-01    0.8758614E-01   -0.8314047E+00    0.0000000E+00   -0.6551403E-02
    0.6567266E+01    0.0000000E+00    0.3837434E-01    0.3837475E-01   -0.7101443E+00    0.0000000E+00   -0.5489956E-01
    0.6719377E+01    0.0000000E+00    0.1552601E-01    0.1552568E-01   -0.5484643E+00    0.0000000E+00   -0.4433667E-01
    0.6863780E+01    0.0000000E+00    0.5984285E-02    0.5984536E-02   -0.3977821E+00    0.0000000E+00   -0.2583558E-01
    0.6998105E+01    0.0000000E+00    0.2274263E-02    0.2274091E-02   -0.2785783E+00    0.0000000E+00   -0.1313191E-01
    0.7120146E+01    0.0000000E+00    0.8831021E-03    0.8831994E-03   -0.1928965E+00    0.0000000E+00   -0.6346011E-02
    0.7227900E+01    0.0000000E+00    0.3636449E-03    0.3636179E-03   -0.1349272E+00    0.0000000E+00   -0.3088957E-02
    0.7319596E+01    0.0000000E+00    0.1644771E-03    0.1644371E-03   -0.9723562E-01    0.0000000E+00   -0.1590150E-02
    0.7393728E+01    0.0000000E+00    0.8425203E-04    0.8435878E-04   -0.7347136E-01    0.0000000E+00   -0.8969292E-03
    0.7449080E+01    0.0000000E+00    0.5068028E-04    0.5049987E-04   -0.5907692E-01    0.0000000E+00   -0.5765493E-03
    0.7484737E+01    0.0000000E+00    0.3574413E-04    0.3602973E-04   -0.5113177E-01    0.0000000E+00   -0.4267581E-03
    0.7500000E+01    0.0000000E+00    0.3190463E-04    0.3115022E-04   -0.4802247E-01    0.0000000E+00   -0.3806909E-03
    0.5000000E+01    0.1526257E-01    0.1946910E-05    0.1469506E-05    0.7826251E+00    0.0000000E+00    0.2857457E-05
    0.5015263E+01    0.1526257E-01    0.2770496E-01    0.2715531E-01    0.7834477E+00    0.0000000E+00    0.1037302E+00
    0.5050920E+01    0.1526257E-01    0.9232170E-01    0.9050362E-01    0.7917371E+00    0.0000000E+00    0.3464959E+00
    0.5106272E+01    0.1526257E-01    0.1917990E+00    0.1881205E+00    0.8213055E+00    0.0000000E+00    0.7259674E+00
    0.5180404E+01    0.1526257E-01    0.3215398E+00    0.3157760E+00    0.8869942E+00    0.0000000E+00    0.1240198E+01
    0.5272100E+01    0.1526257E-01    0.4708642E+00    0.4635644E+00    0.9889358E+00    0.0000000E+00    0.1871486E+01
    0.5379854E+01    0.1526257E-01    0.6172109E+00    0.6101384E+00    0.1086977E+01    0.0000000E+00    0.2537856E+01
    0.5501895E+01    0.1526257E-01    0.7223986E+00    0.7185211E+00    0.1084232E+01    0.0000000E+00    0.3032868E+01
    0.5636220E+01    0.1526257E-01    0.7430208E+00    0.7453959E+00    0.8657629E+00    0.0000000E+00    0.3069243E+01
    0.5780623E+01    0.1526257E-01    0.6595576E+00    0.6693258E+00    0.4070545E+00    0.0000000E+00    0.2515544E+01
    0.5932734E+01    0.1526257E-01    0.4995357E+00    0.5148077E+00   -0.1542975E+00    0.0000000E+00    0.1601857E+01
    0.6090054E+01    0.1526257E-01    0.3226122E+00    0.3396357E+00   -0.6066751E+00    0.0000000E+00    0.7531232E+00
    0.6250000E+01    0.1526257E-01    0.1794510E+00    0.1948785E+00   -0.8266462E+00    0.0000000E+00    0.2266803E+00
    0.6409946E+01    0.1526257E-01    0.8754576E-01    0.9970044E-01   -0.8312346E+00    0.0000000E+00    0.5545465E-02
    0.6567266E+01    0.1526257E-01    0.3835693E-01    0.4706589E-01   -0.7099860E+00    0.0000000E+00   -0.4618984E-01
    0.6719377E+01    0.1526257E-01    0.1551847E-01    0.2138221E-01   -0.5483386E+00    0.0000000E+00   -0.3846325E-01
    0.6863780E+01    0.1526257E-01    0.5981737E-02    0.9787066E-02   -0.3976898E+00    0.0000000E+00   -0.2202159E-01
    0.6998105E+01    0.1526257E-01    0.2273043E-02    0.4705238E-02   -0.2785136E+00    0.0000000E+00   -0.1069558E-01
    0.7120146E+01    0.1526257E-01    0.8827780E-03    0.2444890E-02   -0.1928515E+00    0.0000000E+00   -0.4781051E-02
    0.7227900E+01    0.1526257E-01    0.3634578E-03    0.1391101E-02   -0.1348959E+00    0.0000000E+00   -0.2060583E-02
    0.7319596E+01    0.1526257E-01    0.1643517E-03    0.8695406E-03   -0.9721288E-01    0.0000000E+00   -0.8838334E-03
    0.7393728E+01    0.1526257E-01    0.8432829E-04    0.5974439E-03   -0.7345435E-01    0.0000000E+00   -0.3839935E-03
    0.7449080E+01    0.1526257E-01    0.5046676E-04    0.4520315E-03   -0.5906304E-01    0.0000000E+00   -0.1741148E-03
    0.7484737E+01    0.1526257E-01    0.3602501E-04    0.3776871E-03   -0.5112002E-01    0.0000000E+00   -0.8575701E-04
    0.7500000E+01    0.1526257E-01    0.3110655E-04    0.3497392E-03   -0.4801089E-01    0.0000000E+00   -0.5984016E-04
    0.5000000E+01    0.5091983E-01   -0.1149500E-05   -0.9783212E-07    0.7853996E+00    0.0000000E+00    0.8955107E-05
    0.5015263E+01    0.5091983E-01    0.2767220E-01    0.2585384E-01    0.7862154E+00    0.0000000E+00    0.1025812E+00
    0.5050920E+01    0.5091983E-01    0.9221023E-01    0.8619468E-01    0.7944360E+00    0.0000000E+00    0.3426771E+00
    0.5106272E+01    0.5091983E-01    0.1915502E+00    0.1793828E+00    0.8237509E+00    0.0000000E+00    0.7181171E+00
    0.5180404E+01    0.5091983E-01    0.3210563E+00    0.3020036E+00    0.8888246E+00    0.0000000E+00    0.1227394E+01
    0.5272100E+01    0.5091983E-01    0.4699871E+00    0.4458932E+00    0.9896089E+00    0.0000000E+00    0.1853864E+01
    0.5379854E+01    0.5091983E-01    0.6157541E+00    0.5924905E+00    0.1085926E+01    0.0000000E+00    0.2517666E+01
    0.5501895E+01    0.5091983E-01    0.7202818E+00    0.7077022E+00    0.1081306E+01    0.0000000E+00    0.3015518E+01
    0.5636220E+01    0.5091983E-01    0.7404346E+00    0.7486576E+00    0.8617309E+00    0.0000000E+00    0.3062541E+01
    0.5780623E+01    0.5091983E-01    0.6569601E+00    0.6897206E+00    0.4034611E+00    0.0000000E+00    0.2525492E+01
    0.5932734E+01    0.5091983E-01    0.4974023E+00    0.5483858E+00   -0.1561542E+00    0.0000000E+00    0.1627679E+01
    0.6090054E+01    0.5091983E-01    0.3211657E+00    0.3779007E+00   -0.6065972E+00    0.0000000E+00    0.7873249E+00
    0.6250000E+01    0.5091983E-01    0.1786248E+00    0.2300024E+00   -0.8253271E+00    0.0000000E+00    0.2604092E+00
    0.6409946E+01    0.5091983E-01    0.8713741E-01    0.1276023E+00   -0.8295097E+00    0.0000000E+00    0.3328574E-01
    0.6567266E+01    0.5091983E-01    0.3817698E-01    0.6716632E-01   -0.7083855E+00    0.0000000E+00   -0.2591049E-01
    0.6719377E+01    0.5091983E-01    0.1544550E-01    0.3496297E-01   -0.5470661E+00    0.0000000E+00   -0.2470440E-01
    0.6863780E+01    0.5091983E-01    0.5953587E-02    0.1861932E-01   -0.3967574E+00    0.0000000E+00   -0.1307918E-01
    0.6998105E+01    0.5091983E-01    0.2262339E-02    0.1035770E-01   -0.2778583E+00    0.0000000E+00   -0.4985601E-02
    0.7120146E+01    0.5091983E-01    0.8786244E-03    0.6077926E-02   -0.1923973E+00    0.0000000E+00   -0.1119802E-02
    0.7227900E+01    0.5091983E-01    0.3617436E-03    0.3782167E-02   -0.1345780E+00    0.0000000E+00    0.3443413E-03
    0.7319596E+01    0.5091983E-01    0.1635808E-03    0.2510702E-02   -0.9698377E-01    0.0000000E+00    0.7645069E-03
    0.7393728E+01    0.5091983E-01    0.8392812E-04    0.1791802E-02   -0.7328122E-01    0.0000000E+00    0.8144267E-03
    0.7449080E+01    0.5091983E-01    0.5023267E-04    0.1386771E-02   -0.5892382E-01    0.0000000E+00    0.7632463E-03
    0.7484737E+01    0.5091983E-01    0.3585078E-04    0.1173069E-02   -0.5099953E-01    0.0000000E+00    0.7115637E-03
    0.7500000E+01    0.5091983E-01    0.3097136E-04    0.1091426E-02   -0.4789772E-01    0.0000000E+00    0.6835865E-03
    0.5000000E+01    0.1062715E+00    0.9905594E-06    0.6712446E-06    0.7954297E+00    0.0000000E+00    0.4783295E-05
    0.5015263E+01    0.1062715E+00    0.2754587E-01    0.2386724E-01    0.7962207E+00    0.0000000E+00    0.1011101E+00
    0.5050920E+01    0.1062715E+00    0.9178100E-01    0.7961380E-01    0.8041877E+00    0.0000000E+00    0.3377496E+00
    0.5106272E+01    0.1062715E+00    0.1905968E+00    0.1660110E+00    0.8325691E+00    0.0000000E+00    0.7077040E+00
    0.5180404E+01    0.1062715E+00    0.3192196E+00    0.2808176E+00    0.8953816E+00    0.0000000E+00    0.1209286E+01
    0.5272100E+01    0.1062715E+00    0.4666924E+00    0.4183990E+00    0.9919256E+00    0.0000000E+00    0.1825921E+01
    0.5379854E+01    0.1062715E+00    0.6103350E+00    0.5643196E+00    0.1081955E+01    0.0000000E+00    0.2479504E+01
    0.5501895E+01    0.1062715E+00    0.7124663E+00    0.6889220E+00    0.1070540E+01    0.0000000E+00    0.2972275E+01
    0.5636220E+01    0.1062715E+00    0.7309341E+00    0.7503584E+00    0.8470081E+00    0.0000000E+00    0.3027502E+01
    0.5780623E+01    0.1062715E+00    0.6474487E+00    0.7171057E+00    0.3904072E+00    0.0000000E+00    0.2514654E+01
    0.5932734E+01    0.1062715E+00    0.4896058E+00    0.5962396E+00   -0.1628441E+00    0.0000000E+00    0.1647282E+01
    0.6090054E+01    0.1062715E+00    0.3158856E+00    0.4338255E+00   -0.6062345E+00    0.0000000E+00    0.8285010E+00
    0.6250000E+01    0.1062715E+00    0.1756107E+00    0.2821256E+00   -0.8204537E+00    0.0000000E+00    0.3074941E+00
    0.6409946E+01    0.1062715E+00    0.8564810E-01    0.1694379E+00   -0.8231712E+00    0.0000000E+00    0.7455693E-01
    0.6567266E+01    0.1062715E+00    0.3752077E-01    0.9751763E-01   -0.7025127E+00    0.0000000E+00    0.5103913E-02
    0.6719377E+01    0.1062715E+00    0.1517939E-01    0.5556493E-01   -0.5423989E+00    0.0000000E+00   -0.3448816E-02
    0.6863780E+01    0.1062715E+00    0.5850934E-02    0.3205686E-01   -0.3933384E+00    0.0000000E+00    0.7616091E-03
    0.6998105E+01    0.1062715E+00    0.2223313E-02    0.1897252E-01   -0.2754557E+00    0.0000000E+00    0.3839566E-02
    0.7120146E+01    0.1062715E+00    0.8634721E-03    0.1162064E-01   -0.1907316E+00    0.0000000E+00    0.4526027E-02
    0.7227900E+01    0.1062715E+00    0.3554992E-03    0.7432233E-02   -0.1334124E+00    0.0000000E+00    0.4045040E-02
    0.7319596E+01    0.1062715E+00    0.1607631E-03    0.5016848E-02   -0.9614368E-01    0.0000000E+00    0.3296868E-02
    0.7393728E+01    0.1062715E+00    0.8247575E-04    0.3616005E-02   -0.7264642E-01    0.0000000E+00    0.2653470E-02
    0.7449080E+01    0.1062715E+00    0.4937130E-04    0.2814600E-02   -0.5841338E-01    0.0000000E+00    0.2200641E-02
    0.7484737E+01    0.1062715E+00    0.3522556E-04    0.2388097E-02   -0.5055773E-01    0.0000000E+00    0.1933678E-02
    0.7500000E+01    0.1062715E+00    0.3045362E-04    0.2224448E-02   -0.4748277E-01    0.0000000E+00    0.1822946E-02
    0.5000000E+01    0.1804044E+00   -0.5233647E-06    0.3983673E-06    0.8186207E+00    0.0000000E+00    0.4605234E-05
    0.5015263E+01    0.1804044E+00    0.2720287E-01    0.2143878E-01    0.8193511E+00    0.0000000E+00    0.9964492E-01
    0.5050920E+01    0.1804044E+00    0.9061936E-01    0.7156679E-01    0.8267004E+00    0.0000000E+00    0.3327626E+00
    0.5106272E+01    0.1804044E+00    0.1880439E+00    0.1496417E+00    0.8528124E+00    0.0000000E+00    0.6965768E+00
    0.5180404E+01    0.1804044E+00    0.3144011E+00    0.2548053E+00    0.9101559E+00    0.0000000E+00    0.1187672E+01
    0.5272100E+01    0.1804044E+00    0.4582701E+00    0.3844145E+00    0.9965323E+00    0.0000000E+00    0.1786880E+01
    0.5379854E+01    0.1804044E+00    0.5968154E+00    0.5289583E+00    0.1071669E+01    0.0000000E+00    0.2415899E+01
    0.5501895E+01    0.1804044E+00    0.6933303E+00    0.6642075E+00    0.1044416E+01    0.0000000E+00    0.2885520E+01
    0.5636220E+01    0.1804044E+00    0.7079717E+00    0.7498921E+00    0.8119867E+00    0.0000000E+00    0.2937446E+01
    0.5780623E+01    0.1804044E+00    0.6246518E+00    0.7478715E+00    0.3597828E+00    0.0000000E+00    0.2454031E+01
    0.5932734E+01    0.1804044E+00    0.4710147E+00    0.6527851E+00   -0.1781832E+00    0.0000000E+00    0.1637081E+01
    0.6090054E+01    0.1804044E+00    0.3033321E+00    0.5015372E+00   -0.6048696E+00    0.0000000E+00    0.8616894E+00
    0.6250000E+01    0.1804044E+00    0.1684560E+00    0.3463272E+00   -0.8084903E+00    0.0000000E+00    0.3600616E+00
    0.6409946E+01    0.1804044E+00    0.8211558E-01    0.2216395E+00   -0.8078297E+00    0.0000000E+00    0.1255781E+00
    0.6567266E+01    0.1804044E+00    0.3596481E-01    0.1357483E+00   -0.6883532E+00    0.0000000E+00    0.4497468E-01
    0.6719377E+01    0.1804044E+00    0.1454852E-01    0.8168319E-01   -0.5311607E+00    0.0000000E+00    0.2424599E-01
    0.6863780E+01    0.1804044E+00    0.5607571E-02    0.4916303E-01   -0.3851094E+00    0.0000000E+00    0.1883403E-01
    0.6998105E+01    0.1804044E+00    0.2130804E-02    0.2996701E-01   -0.2696737E+00    0.0000000E+00    0.1533659E-01
    0.7120146E+01    0.1804044E+00    0.8275466E-03    0.1870493E-01   -0.1867235E+00    0.0000000E+00    0.1185625E-01
    0.7227900E+01    0.1804044E+00    0.3407014E-03    0.1210148E-01   -0.1306078E+00    0.0000000E+00    0.8834934E-02
    0.7319596E+01    0.1804044E+00    0.1540779E-03    0.8224334E-02   -0.9412219E-01    0.0000000E+00    0.6566775E-02
    0.7393728E+01    0.1804044E+00    0.7903861E-04    0.5951366E-02   -0.7111891E-01    0.0000000E+00    0.5024162E-02
    0.7449080E+01    0.1804044E+00    0.4732258E-04    0.4642802E-02   -0.5718509E-01    0.0000000E+00    0.4051602E-02
    0.7484737E+01    0.1804044E+00    0.3375217E-04    0.3943964E-02   -0.4949465E-01    0.0000000E+00    0.3506412E-02
    0.7500000E+01    0.1804044E+00    0.2920481E-04    0.3675339E-02   -0.4648430E-01    0.0000000E+00    0.3288892E-02
    0.5000000E+01    0.2721004E+00    0.4115736E-06    0.1488587E-06    0.8585918E+00    0.0000000E+00    0.3710436E-05
    0.5015263E+01    0.2721004E+00    0.2641153E-01    0.1911166E-01    0.8592052E+00    0.0000000E+00    0.9808332E-01
    0.5050920E+01    0.2721004E+00    0.8795161E-01    0.6385792E-01    0.8653679E+00    0.0000000E+00    0.3273412E+00
    0.5106272E+01    0.2721004E+00    0.1822714E+00    0.1339779E+00    0.8871354E+00    0.0000000E+00    0.6836994E+00
    0.5180404E+01    0.2721004E+00    0.3038362E+00    0.2299808E+00    0.9341044E+00    0.0000000E+00    0.1159826E+01
    0.5272100E+01    0.2721004E+00    0.4405525E+00    0.3521461E+00    0.1001506E+01    0.0000000E+00    0.1730262E+01
    0.5379854E+01    0.2721004E+00    0.5695282E+00    0.4957019E+00    0.1049496E+01    0.0000000E+00    0.2313925E+01
    0.5501895E+01    0.2721004E+00    0.6559888E+00    0.6416078E+00    0.9943096E+00    0.0000000E+00    0.2734408E+01
    0.5636220E+01    0.2721004E+00    0.6642376E+00    0.7512217E+00    0.7474057E+00    0.0000000E+00    0.2765647E+01
    0.5780623E+01    0.2721004E+00    0.5819273E+00    0.7803567E+00    0.3049055E+00    0.0000000E+00    0.2316405E+01
    0.5932734E+01    0.2721004E+00    0.4365206E+00    0.7117470E+00   -0.2043009E+00    0.0000000E+00    0.1574686E+01
    0.6090054E+01    0.2721004E+00    0.2801757E+00    0.5728470E+00   -0.6004151E+00    0.0000000E+00    0.8714202E+00
    0.6250000E+01    0.2721004E+00    0.1552993E+00    0.4149515E+00   -0.7849575E+00    0.0000000E+00    0.4085441E+00
    0.6409946E+01    0.2721004E+00    0.7562961E-01    0.2782481E+00   -0.7784624E+00    0.0000000E+00    0.1806266E+00
    0.6567266E+01    0.2721004E+00    0.3310986E-01    0.1776952E+00   -0.6614545E+00    0.0000000E+00    0.9019092E-01
    0.6719377E+01    0.2721004E+00    0.1339129E-01    0.1105831E+00   -0.5098666E+00    0.0000000E+00    0.5614096E-01
    0.6863780E+01    0.2721004E+00    0.5161197E-02    0.6819632E-01   -0.3695311E+00    0.0000000E+00    0.3967891E-01
    0.6998105E+01    0.2721004E+00    0.1961137E-02    0.4224209E-01   -0.2587312E+00    0.0000000E+00    0.2854825E-01
    0.7120146E+01    0.2721004E+00    0.7616514E-03    0.2663043E-01   -0.1791389E+00    0.0000000E+00    0.2023856E-01
    0.7227900E+01    0.2721004E+00    0.3135664E-03    0.1733131E-01   -0.1253006E+00    0.0000000E+00    0.1428843E-01
    0.7319596E+01    0.2721004E+00    0.1418116E-03    0.1181933E-01   -0.9029708E-01    0.0000000E+00    0.1027732E-01
    0.7393728E+01    0.2721004E+00    0.7274031E-04    0.8569895E-02   -0.6822852E-01    0.0000000E+00    0.7708043E-02
    0.7449080E+01    0.2721004E+00    0.4355865E-04    0.6693114E-02   -0.5486093E-01    0.0000000E+00    0.6143975E-02
    0.7484737E+01    0.2721004E+00    0.3105825E-04    0.5689067E-02   -0.4748305E-01    0.0000000E+00    0.5282695E-02
    0.7500000E+01    0.2721004E+00    0.2689389E-04    0.5302742E-02   -0.4459498E-01    0.0000000E+00    0.4944085E-02
    0.5000000E+01    0.3798537E+00   -0.6740963E-07    0.4412718E-06    0.9108121E+00    0.0000000E+00    0.7090211E-06
    0.5015263E+01    0.3798537E+00    0.2479959E-01    0.1772689E-01    0.9112380E+00    0.0000000E+00    0.9518223E-01
    0.5050920E+01    0.3798537E+00    0.8254256E-01    0.5927902E-01    0.9155018E+00    0.0000000E+00    0.3173514E+00
    0.5106272E+01    0.3798537E+00    0.1707532E+00    0.1247376E+00    0.9303523E+00    0.0000000E+00    0.6605475E+00
    0.5180404E+01    0.3798537E+00    0.2834464E+00    0.2155892E+00    0.9610188E+00    0.0000000E+00    0.1111756E+01
    0.5272100E+01    0.3798537E+00    0.4079698E+00    0.3341434E+00    0.9993181E+00    0.0000000E+00    0.1636590E+01
    0.5379854E+01    0.3798537E+00    0.5219201E+00    0.4787702E+00    0.1007186E+01    0.0000000E+00    0.2150559E+01
    0.5501895E+01    0.3798537E+00    0.5938002E+00    0.6337349E+00    0.9130038E+00    0.0000000E+00    0.2496320E+01
    0.5636220E+01    0.3798537E+00    0.5939508E+00    0.7614517E+00    0.6490985E+00    0.0000000E+00    0.2493540E+01
    0.5780623E+01    0.3798537E+00    0.5149377E+00    0.8139440E+00    0.2254929E+00    0.0000000E+00    0.2087788E+01
    0.5932734E+01    0.3798537E+00    0.3832838E+00    0.7658703E+00   -0.2383452E+00    0.0000000E+00    0.1448715E+01
    0.6090054E+01    0.3798537E+00    0.2447691E+00    0.6372890E+00   -0.5883422E+00    0.0000000E+00    0.8474882E+00
    0.6250000E+01    0.3798537E+00    0.1352836E+00    0.4776729E+00   -0.7449264E+00    0.0000000E+00    0.4440046E+00
    0.6409946E+01    0.3798537E+00    0.6578660E-01    0.3308964E+00   -0.7305539E+00    0.0000000E+00    0.2325389E+00
    0.6567266E+01    0.3798537E+00    0.2878194E-01    0.2173274E+00   -0.6181060E+00    0.0000000E+00    0.1354771E+00
    0.6719377E+01    0.3798537E+00    0.1163779E-01    0.1382109E+00   -0.4756933E+00    0.0000000E+00    0.8858441E-01
    0.6863780E+01    0.3798537E+00    0.4484930E-02    0.8653498E-01   -0.3445668E+00    0.0000000E+00    0.6086789E-01
    0.6998105E+01    0.3798537E+00    0.1704109E-02    0.5412683E-01   -0.2412045E+00    0.0000000E+00    0.4189182E-01
    0.7120146E+01    0.3798537E+00    0.6618228E-03    0.3432607E-01   -0.1669926E+00    0.0000000E+00    0.2864173E-01
    0.7227900E+01    0.3798537E+00    0.2724644E-03    0.2241799E-01   -0.1168020E+00    0.0000000E+00    0.1972031E-01
    0.7319596E+01    0.3798537E+00    0.1232251E-03    0.1531928E-01   -0.8417191E-01    0.0000000E+00    0.1395519E-01
    0.7393728E+01    0.3798537E+00    0.6320411E-04    0.1112061E-01   -0.6360015E-01    0.0000000E+00    0.1035924E-01
    0.7449080E+01    0.3798537E+00    0.3785109E-04    0.8690930E-02   -0.5113927E-01    0.0000000E+00    0.8206379E-02
    0.7484737E+01    0.3798537E+00    0.2698469E-04    0.7389782E-02   -0.4426191E-01    0.0000000E+00    0.7031294E-02
    0.7500000E+01    0.3798537E+00    0.2337503E-04    0.6888814E-02   -0.4156968E-01    0.0000000E+00    0.6572755E-02
    0.5000000E+01    0.5018948E+00   -0.6335985E-07   -0.9642685E-07    0.9566677E+00    0.0000000E+00    0.1671839E-05
    0.5015263E+01    0.5018948E+00    0.2196805E-01    0.1809058E-01    0.9568444E+00    0.0000000E+00    0.8846942E-01
    0.5050920E+01    0.5018948E+00    0.7307633E-01    0.6049685E-01    0.9585919E+00    0.0000000E+00    0.2946370E+00
    0.5106272E+01    0.5018948E+00    0.1508581E+00    0.1273138E+00    0.9643313E+00    0.0000000E+00    0.6107925E+00
    0.5180404E+01    0.5018948E+00    0.2492153E+00    0.2200926E+00    0.9738629E+00    0.0000000E+00    0.1018536E+01
    0.5272100E+01    0.5018948E+00    0.3556419E+00    0.3412610E+00    0.9755803E+00    0.0000000E+00    0.1475865E+01
    0.5379854E+01    0.5018948E+00    0.4494114E+00    0.4893461E+00    0.9355448E+00    0.0000000E+00    0.1899024E+01
    0.5501895E+01    0.5018948E+00    0.5038309E+00    0.6489279E+00    0.7989503E+00    0.0000000E+00    0.2157352E+01
    0.5636220E+01    0.5018948E+00    0.4964972E+00    0.7830680E+00    0.5231571E+00    0.0000000E+00    0.2123270E+01
    0.5780623E+01    0.5018948E+00    0.4249072E+00    0.8441236E+00    0.1317779E+00    0.0000000E+00    0.1778832E+01
    0.5932734E+01    0.5018948E+00    0.3132033E+00    0.8051221E+00   -0.2705155E+00    0.0000000E+00    0.1267015E+01
    0.6090054E+01    0.5018948E+00    0.1987400E+00    0.6824134E+00   -0.5617238E+00    0.0000000E+00    0.7898307E+00
    0.6250000E+01    0.5018948E+00    0.1094407E+00    0.5225725E+00   -0.6842434E+00    0.0000000E+00    0.4606268E+00
    0.6409946E+01    0.5018948E+00    0.5312075E-01    0.3698704E+00   -0.6616837E+00    0.0000000E+00    0.2738831E+00
    0.6567266E+01    0.5018948E+00    0.2322118E-01    0.2475316E+00   -0.5568039E+00    0.0000000E+00    0.1743642E+00
    0.6719377E+01    0.5018948E+00    0.9386154E-02    0.1597115E+00   -0.4276416E+00    0.0000000E+00    0.1168325E+00
    0.6863780E+01    0.5018948E+00    0.3616741E-02    0.1010019E+00   -0.3095339E+00    0.0000000E+00    0.7920931E-01
    0.6998105E+01    0.5018948E+00    0.1374168E-02    0.6358064E-01   -0.2166258E+00    0.0000000E+00    0.5329973E-01
    0.7120146E+01    0.5018948E+00    0.5336747E-03    0.4047759E-01   -0.1499630E+00    0.0000000E+00    0.3573302E-01
    0.7227900E+01    0.5018948E+00    0.2197071E-03    0.2649551E-01   -0.1048877E+00    0.0000000E+00    0.2425393E-01
    0.7319596E+01    0.5018948E+00    0.9936392E-04    0.1812938E-01   -0.7558514E-01    0.0000000E+00    0.1699952E-01
    0.7393728E+01    0.5018948E+00    0.5096624E-04    0.1317046E-01   -0.5711179E-01    0.0000000E+00    0.1254112E-01
    0.7449080E+01    0.5018948E+00    0.3052110E-04    0.1029728E-01   -0.4592204E-01    0.0000000E+00    0.9897414E-02
    0.7484737E+01    0.5018948E+00    0.2176039E-04    0.8757635E-02   -0.3974631E-01    0.0000000E+00    0.8461928E-02
    0.7500000E+01    0.5018948E+00    0.1884666E-04    0.8164560E-02   -0.3732867E-01    0.0000000E+00    0.7904215E-02
    0.5000000E+01    0.6362199E+00    0.2861891E-06    0.2233976E-06    0.9647958E+00    0.0000000E+00   -0.4798914E-06
    0.5015263E+01    0.6362199E+00    0.1782466E-01    0.2019971E-01    0.9647103E+00    0.0000000E+00    0.7594746E-01
    0.5050920E+01    0.6362199E+00    0.5926065E-01    0.6748364E-01    0.9638151E+00    0.0000000E+00    0.2526752E+00
    0.5106272E+01    0.6362199E+00    0.1220922E+00    0.1415164E+00    0.9600513E+00    0.0000000E+00    0.5218810E+00
    0.5180404E+01    0.6362199E+00    0.2007501E+00    0.2426705E+00    0.9479375E+00    0.0000000E+00    0.8629660E+00
    0.5272100E+01    0.6362199E+00    0.2840831E+00    0.3710671E+00    0.9135884E+00    0.0000000E+00    0.1232602E+01
    0.5379854E+01    0.6362199E+00    0.3546170E+00    0.5221179E+00    0.8296409E+00    0.0000000E+00    0.1556257E+01
    0.5501895E+01    0.6362199E+00    0.3916717E+00    0.6782426E+00    0.6603574E+00    0.0000000E+00    0.1735488E+01
    0.5636220E+01    0.6362199E+00    0.3800670E+00    0.8039903E+00    0.3872857E+00    0.0000000E+00    0.1691100E+01
    0.5780623E+01    0.6362199E+00    0.3208570E+00    0.8571630E+00    0.4313867E-01    0.0000000E+00    0.1428910E+01
    0.5932734E+01    0.6362199E+00    0.2340535E+00    0.8156553E+00   -0.2867658E+00    0.0000000E+00    0.1056470E+01
    0.6090054E+01    0.6362199E+00    0.1474925E+00    0.6953870E+00   -0.5139557E+00    0.0000000E+00    0.7083087E+00
    0.6250000E+01    0.6362199E+00    0.8089576E-01    0.5386265E+00   -0.6017477E+00    0.0000000E+00    0.4565663E+00
    0.6409946E+01    0.6362199E+00    0.3918583E-01    0.3864202E+00   -0.5732245E+00    0.0000000E+00    0.2983359E+00
    0.6567266E+01    0.6362199E+00    0.1711401E-01    0.2618696E+00   -0.4795256E+00    0.0000000E+00    0.2005026E+00
    0.6719377E+01    0.6362199E+00    0.6915030E-02    0.1706355E+00   -0.3674685E+00    0.0000000E+00    0.1360631E+00
    0.6863780E+01    0.6362199E+00    0.2664176E-02    0.1086531E+00   -0.2657663E+00    0.0000000E+00    0.9145597E-01
    0.6998105E+01    0.6362199E+00    0.1012196E-02    0.6869766E-01   -0.1859435E+00    0.0000000E+00    0.6069097E-01
    0.7120146E+01    0.6362199E+00    0.3930898E-03    0.4385141E-01   -0.1287104E+00    0.0000000E+00    0.4018834E-01
    0.7227900E+01    0.6362199E+00    0.1618312E-03    0.2874862E-01   -0.9002018E-01    0.0000000E+00    0.2702821E-01
    0.7319596E+01    0.6362199E+00    0.7318685E-04    0.1968873E-01   -0.6487040E-01    0.0000000E+00    0.1882521E-01
    0.7393728E+01    0.6362199E+00    0.3754167E-04    0.1431070E-01   -0.4901556E-01    0.0000000E+00    0.1383103E-01
    0.7449080E+01    0.6362199E+00    0.2247908E-04    0.1119201E-01   -0.3941200E-01    0.0000000E+00    0.1088790E-01
    0.7484737E+01    0.6362199E+00    0.1603028E-04    0.9520073E-02   -0.3411175E-01    0.0000000E+00    0.9295342E-02
    0.7500000E+01    0.6362199E+00    0.1387628E-04    0.8875823E-02   -0.3203678E-01    0.0000000E+00    0.8678273E-02
    0.5000000E+01    0.7806232E+00   -0.3873616E-06   -0.9967024E-07    0.9067617E+00    0.0000000E+00    0.6150599E-06
    0.5015263E+01    0.7806232E+00    0.1289552E-01    0.2266381E-01    0.9064752E+00    0.0000000E+00    0.5876064E-01
    0.5050920E+01    0.7806232E+00    0.4285333E-01    0.7561397E-01    0.9035593E+00    0.0000000E+00    0.1953609E+00
    0.5106272E+01    0.7806232E+00    0.8814159E-01    0.1577986E+00    0.8925939E+00    0.0000000E+00    0.4025111E+00
    0.5180404E+01    0.7806232E+00    0.1443590E+00    0.2675787E+00    0.8644874E+00    0.0000000E+00    0.6618775E+00
    0.5272100E+01    0.7806232E+00    0.2028414E+00    0.4012708E+00    0.8050094E+00    0.0000000E+00    0.9366886E+00
    0.5379854E+01    0.7806232E+00    0.2505703E+00    0.5495766E+00    0.6944723E+00    0.0000000E+00    0.1169433E+01
    0.5501895E+01    0.7806232E+00    0.2731904E+00    0.6924068E+00    0.5142756E+00    0.0000000E+00    0.1293370E+01
    0.5636220E+01    0.7806232E+00    0.2615034E+00    0.7978094E+00    0.2640729E+00    0.0000000E+00    0.1263792E+01
    0.5780623E+01    0.7806232E+00    0.2180648E+00    0.8328573E+00   -0.2103443E-01    0.0000000E+00    0.1093057E+01
    0.5932734E+01    0.7806232E+00    0.1575590E+00    0.7837729E+00   -0.2765957E+00    0.0000000E+00    0.8506121E+00
    0.6090054E+01    0.7806232E+00    0.9865454E-01    0.6671409E+00   -0.4435668E+00    0.0000000E+00    0.6161799E+00
    0.6250000E+01    0.7806232E+00    0.5390794E-01    0.5194282E+00   -0.5015770E+00    0.0000000E+00    0.4326299E+00
    0.6409946E+01    0.7806232E+00    0.2606337E-01    0.3757591E+00   -0.4712640E+00    0.0000000E+00    0.3018851E+00
    0.6567266E+01    0.7806232E+00    0.1137315E-01    0.2567951E+00   -0.3920710E+00    0.0000000E+00    0.2094181E+00
    0.6719377E+01    0.7806232E+00    0.4593796E-02    0.1684726E+00   -0.2998235E+00    0.0000000E+00    0.1428589E+00
    0.6863780E+01    0.7806232E+00    0.1769634E-02    0.1077916E+00   -0.2166799E+00    0.0000000E+00    0.9535245E-01
    0.6998105E+01    0.7806232E+00    0.6723047E-03    0.6836313E-01   -0.1515607E+00    0.0000000E+00    0.6265951E-01
    0.7120146E+01    0.7806232E+00    0.2610858E-03    0.4371932E-01   -0.1049012E+00    0.0000000E+00    0.4113673E-01
    0.7227900E+01    0.7806232E+00    0.1074875E-03    0.2869341E-01   -0.7336571E-01    0.0000000E+00    0.2748913E-01
    0.7319596E+01    0.7806232E+00    0.4860858E-04    0.1966336E-01   -0.5286825E-01    0.0000000E+00    0.1906199E-01
    0.7393728E+01    0.7806232E+00    0.2493586E-04    0.1429746E-01   -0.3994667E-01    0.0000000E+00    0.1396457E-01
    0.7449080E+01    0.7806232E+00    0.1492893E-04    0.1118394E-01   -0.3211990E-01    0.0000000E+00    0.1097343E-01
    0.7484737E+01    0.7806232E+00    0.1064884E-04    0.9514253E-02   -0.2780031E-01    0.0000000E+00    0.9358854E-02