 Title="after_elm"
 Variables=x,y,e1,e2,e3,e4,e5
 zone T="           1 ",i=          25 ,j=          25
    0.0000000E+00   -0.5000000E+01   -0.5865308E-10   -0.1171063E-09   -0.5755396E-10    0.0000000E+00   -0.2358114E-09
    0.1526257E-01   -0.5000000E+01    0.1032801E-10    0.2061125E-10   -0.5761286E-10    0.0000000E+00    0.4120905E-10
    0.5091983E-01   -0.5000000E+01   -0.1731276E-10   -0.3461946E-10   -0.5737131E-10    0.0000000E+00   -0.6933489E-10
    0.1062715E+00   -0.5000000E+01    0.5784969E-11    0.1157074E-10   -0.5771698E-10    0.0000000E+00    0.2328638E-10
    0.1804044E+00   -0.5000000E+01    0.9202053E-12    0.1823273E-11   -0.5752606E-10    0.0000000E+00    0.3578879E-11
    0.2721004E+00   -0.5000000E+01   -0.1750470E-12   -0.2988109E-12   -0.5758815E-10    0.0000000E+00   -0.5830075E-12
    0.3798537E+00   -0.5000000E+01   -0.2272067E-12   -0.4685191E-12   -0.5773103E-10    0.0000000E+00   -0.9652868E-12
    0.5018948E+00   -0.5000000E+01   -0.1967897E-12   -0.3913292E-12   -0.5711123E-10    0.0000000E+00   -0.8202511E-12
    0.6362199E+00   -0.5000000E+01    0.2055670E-11    0.4124686E-11   -0.5772496E-10    0.0000000E+00    0.8242622E-11
    0.7806232E+00   -0.5000000E+01   -0.9852073E-12   -0.1970003E-11   -0.5739907E-10    0.0000000E+00   -0.3927871E-11
    0.9327337E+00   -0.5000000E+01    0.1684297E-11    0.3351692E-11   -0.5779398E-10    0.0000000E+00    0.6710298E-11
    0.1090054E+01   -0.5000000E+01   -0.1667222E-11   -0.3314236E-11   -0.5728788E-10    0.0000000E+00   -0.6657585E-11
    0.1250000E+01   -0.5000000E+01    0.5974328E-13    0.1420877E-12   -0.5735748E-10    0.0000000E+00    0.2585450E-12
    0.1409946E+01   -0.5000000E+01    0.6926559E-12    0.1388146E-11   -0.5766478E-10    0.0000000E+00    0.2774559E-11
    0.1567266E+01   -0.5000000E+01    0.1856489E-11    0.3733822E-11   -0.5753636E-10    0.0000000E+00    0.7481027E-11
    0.1719377E+01   -0.5000000E+01   -0.1086035E-11   -0.2124469E-11   -0.5730946E-10    0.0000000E+00   -0.4270221E-11
    0.1863780E+01   -0.5000000E+01   -0.1251809E-11   -0.2454260E-11   -0.5748663E-10    0.0000000E+00   -0.4963348E-11
    0.1998105E+01   -0.5000000E+01   -0.7093828E-12   -0.1304942E-11   -0.5726671E-10    0.0000000E+00   -0.2731104E-11
    0.2120146E+01   -0.5000000E+01   -0.8979010E-12   -0.1572113E-11   -0.5735521E-10    0.0000000E+00   -0.3365983E-11
    0.2227900E+01   -0.5000000E+01    0.5253912E-11    0.1086176E-10   -0.5858737E-10    0.0000000E+00    0.2130219E-10
    0.2319596E+01   -0.5000000E+01   -0.8574211E-14    0.6130055E-12   -0.5692516E-10    0.0000000E+00    0.6375323E-12
    0.2393728E+01   -0.5000000E+01   -0.1160779E-11   -0.1449736E-11   -0.5843523E-10    0.0000000E+00   -0.3823852E-11
    0.2449080E+01   -0.5000000E+01    0.2098816E-11    0.5378771E-11   -0.5478011E-10    0.0000000E+00    0.9612503E-11
    0.2484737E+01   -0.5000000E+01   -0.1476109E-10   -0.2823746E-10   -0.6161646E-10    0.0000000E+00   -0.5772340E-10
    0.2500000E+01   -0.5000000E+01    0.4506395E-10    0.9122703E-10   -0.8318346E-10    0.0000000E+00    0.1812550E-09
    0.0000000E+00   -0.4984737E+01   -0.5497634E-10   -0.1097574E-09    0.1144120E-10    0.0000000E+00   -0.2195148E-09
    0.1526257E-01   -0.4984737E+01    0.1017598E-10    0.2031652E-10    0.1068809E-10    0.0000000E+00    0.4069309E-10
    0.5091983E-01   -0.4984737E+01   -0.9549533E-12   -0.1899985E-11    0.1106841E-10    0.0000000E+00   -0.3818386E-11
    0.1062715E+00   -0.4984737E+01    0.1385450E-12    0.2709404E-12    0.1078799E-10    0.0000000E+00    0.4936062E-12
    0.1804044E+00   -0.4984737E+01   -0.1509068E-11   -0.3068288E-11    0.1087700E-10    0.0000000E+00   -0.6130523E-11
    0.2721004E+00   -0.4984737E+01    0.4310247E-12    0.8952057E-12    0.1088260E-10    0.0000000E+00    0.1805404E-11
    0.3798537E+00   -0.4984737E+01   -0.3045337E-12   -0.6004688E-12    0.1097582E-10    0.0000000E+00   -0.1186564E-11
    0.5018948E+00   -0.4984737E+01    0.4698920E-13    0.7744655E-13    0.1074563E-10    0.0000000E+00    0.1773466E-12
    0.6362199E+00   -0.4984737E+01    0.7125182E-12    0.1431884E-11    0.1093941E-10    0.0000000E+00    0.2862183E-11
    0.7806232E+00   -0.4984737E+01   -0.3977957E-13   -0.8895367E-13    0.1074303E-10    0.0000000E+00   -0.1729358E-12
    0.9327337E+00   -0.4984737E+01   -0.4722123E-12   -0.9292987E-12    0.1093799E-10    0.0000000E+00   -0.1863799E-11
    0.1090054E+01   -0.4984737E+01    0.1528033E-12    0.2966447E-12    0.1079062E-10    0.0000000E+00    0.5869288E-12
    0.1250000E+01   -0.4984737E+01   -0.2276111E-12   -0.4301564E-12    0.1091851E-10    0.0000000E+00   -0.8740807E-12
    0.1409946E+01   -0.4984737E+01    0.9674854E-13    0.1733800E-12    0.1064739E-10    0.0000000E+00    0.3257756E-12
    0.1567266E+01   -0.4984737E+01    0.3405132E-12    0.6965762E-12    0.1091701E-10    0.0000000E+00    0.1384665E-11
    0.1719377E+01   -0.4984737E+01    0.2323476E-12    0.4992901E-12    0.1130500E-10    0.0000000E+00    0.9771347E-12
    0.1863780E+01   -0.4984737E+01   -0.4609608E-12   -0.8691523E-12    0.1067544E-10    0.0000000E+00   -0.1785845E-11
    0.1998105E+01   -0.4984737E+01   -0.1192682E-12   -0.1189152E-12    0.1107483E-10    0.0000000E+00   -0.3411617E-12
    0.2120146E+01   -0.4984737E+01    0.4459118E-12    0.1155428E-11    0.1073097E-10    0.0000000E+00    0.2051913E-11
    0.2227900E+01   -0.4984737E+01   -0.2489437E-12   -0.5420925E-13    0.9835566E-11    0.0000000E+00   -0.5531462E-12
    0.2319596E+01   -0.4984737E+01    0.1169705E-11    0.3069540E-11    0.1081828E-10    0.0000000E+00    0.5421978E-11
    0.2393728E+01   -0.4984737E+01   -0.1121076E-11   -0.1228351E-11    0.1096348E-10    0.0000000E+00   -0.3473072E-11
    0.2449080E+01   -0.4984737E+01   -0.5088302E-14    0.1302387E-11    0.9041383E-11    0.0000000E+00    0.1285375E-11
    0.2484737E+01   -0.4984737E+01   -0.9315653E-11   -0.1708246E-10    0.1051844E-10    0.0000000E+00   -0.3573958E-10
    0.2500000E+01   -0.4984737E+01    0.4879191E-10    0.9875560E-10    0.1050886E-10    0.0000000E+00    0.1960790E-09
    0.0000000E+00   -0.4949080E+01   -0.5565601E-10   -0.1113120E-09   -0.1557913E-11    0.0000000E+00   -0.2234999E-09
    0.1526257E-01   -0.4949080E+01    0.9710644E-11    0.1942592E-10   -0.1557424E-11    0.0000000E+00    0.3895821E-10
    0.5091983E-01   -0.4949080E+01   -0.9858806E-12   -0.1991806E-11   -0.1494632E-11    0.0000000E+00   -0.4011801E-11
    0.1062715E+00   -0.4949080E+01    0.1078223E-11    0.2156235E-11   -0.1506127E-11    0.0000000E+00    0.4278809E-11
    0.1804044E+00   -0.4949080E+01   -0.5628341E-13   -0.1323643E-12   -0.1408317E-11    0.0000000E+00   -0.3057648E-12
    0.2721004E+00   -0.4949080E+01   -0.4889278E-12   -0.9874556E-12   -0.1563258E-11    0.0000000E+00   -0.1923482E-11
    0.3798537E+00   -0.4949080E+01    0.4367646E-13    0.8728777E-13   -0.1447896E-11    0.0000000E+00    0.1824145E-12
    0.5018948E+00   -0.4949080E+01   -0.1215460E-12   -0.2460520E-12   -0.1511960E-11    0.0000000E+00   -0.4952832E-12
    0.6362199E+00   -0.4949080E+01   -0.2275572E-12   -0.4665093E-12   -0.1462474E-11    0.0000000E+00   -0.9219856E-12
    0.7806232E+00   -0.4949080E+01    0.3782421E-12    0.7608243E-12   -0.1538414E-11    0.0000000E+00    0.1509026E-11
    0.9327337E+00   -0.4949080E+01    0.1719931E-12    0.3392563E-12   -0.1413424E-11    0.0000000E+00    0.6804183E-12
    0.1090054E+01   -0.4949080E+01    0.1173420E-12    0.2180534E-12   -0.1479848E-11    0.0000000E+00    0.4378226E-12
    0.1250000E+01   -0.4949080E+01   -0.1951551E-12   -0.3655160E-12   -0.1418396E-11    0.0000000E+00   -0.7345189E-12
    0.1409946E+01   -0.4949080E+01   -0.1253867E-12   -0.2607698E-12   -0.1386163E-11    0.0000000E+00   -0.5197705E-12
    0.1567266E+01   -0.4949080E+01   -0.4028953E-12   -0.7862032E-12   -0.1693756E-11    0.0000000E+00   -0.1588309E-11
    0.1719377E+01   -0.4949080E+01    0.7743567E-13    0.1964631E-12   -0.1472949E-11    0.0000000E+00    0.3709702E-12
    0.1863780E+01   -0.4949080E+01    0.2825277E-12    0.6407279E-12   -0.1492943E-11    0.0000000E+00    0.1196112E-11
    0.1998105E+01   -0.4949080E+01    0.1710559E-12    0.5255899E-12   -0.1649196E-11    0.0000000E+00    0.8736236E-12
    0.2120146E+01   -0.4949080E+01   -0.1653160E-12    0.3211427E-13   -0.1702631E-11    0.0000000E+00   -0.2737361E-12
    0.2227900E+01   -0.4949080E+01   -0.4828388E-13    0.5076333E-12   -0.1538927E-11    0.0000000E+00    0.3887720E-12
    0.2319596E+01   -0.4949080E+01    0.7836258E-14    0.1034359E-11   -0.2030171E-11    0.0000000E+00    0.1052863E-11
    0.2393728E+01   -0.4949080E+01   -0.9075300E-12   -0.3754818E-12   -0.2262704E-11    0.0000000E+00   -0.2165696E-11
    0.2449080E+01   -0.4949080E+01    0.1218859E-11    0.4303994E-11   -0.2634351E-11    0.0000000E+00    0.6719273E-11
    0.2484737E+01   -0.4949080E+01   -0.1165571E-10   -0.2108109E-10   -0.3101474E-11    0.0000000E+00   -0.4438943E-10
    0.2500000E+01   -0.4949080E+01    0.6083841E-10    0.1240125E-09   -0.3464331E-11    0.0000000E+00    0.2456894E-09
    0.0000000E+00   -0.4893728E+01   -0.6202651E-10   -0.1238478E-09    0.5691521E-12    0.0000000E+00   -0.2483113E-09
    0.1526257E-01   -0.4893728E+01    0.1274029E-10    0.2550431E-10    0.6173223E-12    0.0000000E+00    0.5105136E-10
    0.5091983E-01   -0.4893728E+01   -0.2215238E-11   -0.4379633E-11    0.5691894E-12    0.0000000E+00   -0.8830937E-11
    0.1062715E+00   -0.4893728E+01    0.9346590E-12    0.1886145E-11    0.5531828E-12    0.0000000E+00    0.3762501E-11
    0.1804044E+00   -0.4893728E+01   -0.3326759E-12   -0.6922060E-12    0.6067790E-12    0.0000000E+00   -0.1353171E-11
    0.2721004E+00   -0.4893728E+01    0.4151779E-12    0.8749558E-12    0.5985556E-12    0.0000000E+00    0.1737532E-11
    0.3798537E+00   -0.4893728E+01    0.6826505E-13    0.1399581E-12    0.5733213E-12    0.0000000E+00    0.2572965E-12
    0.5018948E+00   -0.4893728E+01    0.2327752E-12    0.4609061E-12    0.5854111E-12    0.0000000E+00    0.9293042E-12
    0.6362199E+00   -0.4893728E+01   -0.1024105E-12   -0.1944600E-12    0.5935121E-12    0.0000000E+00   -0.4103061E-12
    0.7806232E+00   -0.4893728E+01   -0.2217270E-12   -0.4417792E-12    0.5694155E-12    0.0000000E+00   -0.8930927E-12
    0.9327337E+00   -0.4893728E+01    0.1481169E-12    0.3048800E-12    0.5856051E-12    0.0000000E+00    0.5883156E-12
    0.1090054E+01   -0.4893728E+01   -0.5515442E-13   -0.1206764E-12    0.6329595E-12    0.0000000E+00   -0.2358901E-12
    0.1250000E+01   -0.4893728E+01    0.1800469E-12    0.3797924E-12    0.5624543E-12    0.0000000E+00    0.7343819E-12
    0.1409946E+01   -0.4893728E+01    0.3033659E-13    0.5223577E-13    0.5644225E-12    0.0000000E+00    0.8877440E-13
    0.1567266E+01   -0.4893728E+01    0.5028932E-13    0.1215810E-12    0.5842272E-12    0.0000000E+00    0.2382357E-12
    0.1719377E+01   -0.4893728E+01   -0.2608253E-12   -0.4577837E-12    0.5507225E-12    0.0000000E+00   -0.9762940E-12
    0.1863780E+01   -0.4893728E+01    0.1502661E-13    0.1658642E-12    0.4925539E-12    0.0000000E+00    0.1691716E-12
    0.1998105E+01   -0.4893728E+01   -0.1831663E-12   -0.6315299E-13    0.4839620E-12    0.0000000E+00   -0.4470757E-12
    0.2120146E+01   -0.4893728E+01    0.1077971E-12    0.8222767E-12    0.7236093E-13    0.0000000E+00    0.1068867E-11
    0.2227900E+01   -0.4893728E+01   -0.8997183E-13    0.8865479E-12    0.2458353E-13    0.0000000E+00    0.6979271E-12
    0.2319596E+01   -0.4893728E+01    0.1297625E-12    0.1988165E-11   -0.8741731E-13    0.0000000E+00    0.2283103E-11
    0.2393728E+01   -0.4893728E+01   -0.1499458E-12    0.2145021E-11   -0.7046495E-12    0.0000000E+00    0.1843900E-11
    0.2449080E+01   -0.4893728E+01    0.1631596E-11    0.6480566E-11   -0.8479283E-12    0.0000000E+00    0.9725109E-11
    0.2484737E+01   -0.4893728E+01   -0.1061940E-10   -0.1749433E-10   -0.1041405E-11    0.0000000E+00   -0.3873571E-10
    0.2500000E+01   -0.4893728E+01    0.5823002E-10    0.1202565E-09   -0.2157954E-11    0.0000000E+00    0.2364087E-09
    0.0000000E+00   -0.4819596E+01   -0.5748600E-10   -0.1144913E-09   -0.1026565E-12    0.0000000E+00   -0.2297838E-09
    0.1526257E-01   -0.4819596E+01    0.9546291E-11    0.1911907E-10   -0.2357119E-12    0.0000000E+00    0.3832112E-10
    0.5091983E-01   -0.4819596E+01   -0.1027282E-11   -0.2072441E-11   -0.2469127E-12    0.0000000E+00   -0.4109961E-11
    0.1062715E+00   -0.4819596E+01    0.6278223E-13    0.1259998E-12   -0.1639075E-12    0.0000000E+00    0.2471317E-12
    0.1804044E+00   -0.4819596E+01    0.1016918E-13    0.3387036E-14   -0.2680149E-12    0.0000000E+00   -0.1016001E-13
    0.2721004E+00   -0.4819596E+01    0.1530483E-12    0.3402915E-12   -0.2061449E-12    0.0000000E+00    0.6614196E-12
    0.3798537E+00   -0.4819596E+01   -0.1719423E-12   -0.3426405E-12   -0.2404954E-12    0.0000000E+00   -0.7206503E-12
    0.5018948E+00   -0.4819596E+01    0.1030064E-12    0.1962306E-12   -0.2408914E-12    0.0000000E+00    0.3765506E-12
    0.6362199E+00   -0.4819596E+01   -0.5348240E-13   -0.1037831E-12   -0.2281342E-12    0.0000000E+00   -0.2171188E-12
    0.7806232E+00   -0.4819596E+01    0.1027402E-12    0.1997065E-12   -0.2677821E-12    0.0000000E+00    0.4056655E-12
    0.9327337E+00   -0.4819596E+01   -0.2851685E-12   -0.5709314E-12   -0.1904357E-12    0.0000000E+00   -0.1123997E-11
    0.1090054E+01   -0.4819596E+01    0.7130023E-14    0.5271529E-14   -0.2549884E-12    0.0000000E+00    0.6021542E-14
    0.1250000E+01   -0.4819596E+01    0.1250430E-13    0.3991509E-13   -0.2809944E-12    0.0000000E+00    0.6433795E-13
    0.1409946E+01   -0.4819596E+01    0.1272089E-12    0.2523303E-12   -0.2402977E-12    0.0000000E+00    0.4870762E-12
    0.1567266E+01   -0.4819596E+01    0.1869425E-12    0.4291537E-12   -0.2937228E-12    0.0000000E+00    0.8245854E-12
    0.1719377E+01   -0.4819596E+01   -0.4081266E-13    0.4639566E-13   -0.1875036E-12    0.0000000E+00   -0.2484133E-13
    0.1863780E+01   -0.4819596E+01    0.1111628E-12    0.4969576E-12   -0.5613773E-12    0.0000000E+00    0.6924680E-12
    0.1998105E+01   -0.4819596E+01   -0.1451200E-12    0.3316620E-12   -0.4571093E-12    0.0000000E+00    0.4114511E-13
    0.2120146E+01   -0.4819596E+01    0.4229417E-12    0.2095937E-11   -0.1029349E-11    0.0000000E+00    0.2955031E-11
    0.2227900E+01   -0.4819596E+01   -0.1303967E-12    0.1886357E-11   -0.1233531E-11    0.0000000E+00    0.1570857E-11
    0.2319596E+01   -0.4819596E+01    0.1214427E-12    0.3742382E-11   -0.1986522E-11    0.0000000E+00    0.4031250E-11
    0.2393728E+01   -0.4819596E+01   -0.3693113E-12    0.4235869E-11   -0.2740790E-11    0.0000000E+00    0.3487371E-11
    0.2449080E+01   -0.4819596E+01    0.1354957E-12    0.6735786E-11   -0.3117502E-11    0.0000000E+00    0.7041233E-11
    0.2484737E+01   -0.4819596E+01   -0.1064951E-10   -0.1365142E-10   -0.4919772E-11    0.0000000E+00   -0.3503985E-10
    0.2500000E+01   -0.4819596E+01    0.5568330E-10    0.1192183E-09   -0.2966686E-11    0.0000000E+00    0.2307452E-09
    0.0000000E+00   -0.4727900E+01   -0.5652232E-10   -0.1131113E-09    0.3850439E-13    0.0000000E+00   -0.2259561E-09
    0.1526257E-01   -0.4727900E+01    0.1201828E-10    0.2401974E-10    0.1363037E-12    0.0000000E+00    0.4822902E-10
    0.5091983E-01   -0.4727900E+01   -0.1826626E-11   -0.3642979E-11    0.7679431E-13    0.0000000E+00   -0.7322522E-11
    0.1062715E+00   -0.4727900E+01    0.6419434E-12    0.1296838E-11    0.9833414E-13    0.0000000E+00    0.2515994E-11
    0.1804044E+00   -0.4727900E+01   -0.3063152E-12   -0.6285156E-12    0.9931676E-13    0.0000000E+00   -0.1254383E-11
    0.2721004E+00   -0.4727900E+01    0.6665591E-13    0.1406919E-12    0.1609873E-12    0.0000000E+00    0.3261893E-12
    0.3798537E+00   -0.4727900E+01   -0.2641911E-13   -0.6928663E-13    0.8010291E-13    0.0000000E+00   -0.1188410E-12
    0.5018948E+00   -0.4727900E+01   -0.1698876E-12   -0.3571905E-12    0.1279451E-12    0.0000000E+00   -0.7314797E-12
    0.6362199E+00   -0.4727900E+01   -0.4088860E-13   -0.6666192E-13    0.8838426E-13    0.0000000E+00   -0.1205052E-12
    0.7806232E+00   -0.4727900E+01   -0.1466993E-13   -0.4140149E-13    0.1288250E-12    0.0000000E+00   -0.6125662E-13
    0.9327337E+00   -0.4727900E+01    0.1502611E-12    0.3062836E-12    0.7603646E-13    0.0000000E+00    0.6210284E-12
    0.1090054E+01   -0.4727900E+01   -0.5163654E-13   -0.1143827E-12    0.1666385E-12    0.0000000E+00   -0.2338792E-12
    0.1250000E+01   -0.4727900E+01    0.2234330E-13    0.5784682E-13    0.1202753E-12    0.0000000E+00    0.1051459E-12
    0.1409946E+01   -0.4727900E+01   -0.2190308E-12   -0.4143169E-12    0.7503097E-13    0.0000000E+00   -0.8448586E-12
    0.1567266E+01   -0.4727900E+01   -0.3883357E-13    0.3296944E-13    0.8677102E-13    0.0000000E+00   -0.3265434E-13
    0.1719377E+01   -0.4727900E+01    0.1503555E-12    0.5872044E-12   -0.1278915E-12    0.0000000E+00    0.9040247E-12
    0.1863780E+01   -0.4727900E+01   -0.8259543E-13    0.5045397E-12   -0.3014003E-12    0.0000000E+00    0.3150825E-12
    0.1998105E+01   -0.4727900E+01   -0.5084754E-13    0.1363276E-11   -0.6818341E-12    0.0000000E+00    0.1254693E-11
    0.2120146E+01   -0.4727900E+01   -0.8028849E-13    0.2735067E-11   -0.1656263E-11    0.0000000E+00    0.2593034E-11
    0.2227900E+01   -0.4727900E+01   -0.2738692E-12    0.4564861E-11   -0.2571633E-11    0.0000000E+00    0.4010357E-11
    0.2319596E+01   -0.4727900E+01    0.2639862E-12    0.8700037E-11   -0.4314020E-11    0.0000000E+00    0.9271074E-11
    0.2393728E+01   -0.4727900E+01   -0.2476963E-13    0.1166646E-10   -0.5887756E-11    0.0000000E+00    0.1160439E-10
    0.2449080E+01   -0.4727900E+01    0.1062303E-11    0.1738445E-10   -0.7216384E-11    0.0000000E+00    0.1948172E-10
    0.2484737E+01   -0.4727900E+01   -0.1062909E-10   -0.3223216E-11   -0.8817696E-11    0.0000000E+00   -0.2447429E-10
    0.2500000E+01   -0.4727900E+01    0.5675547E-10    0.1331622E-09   -0.7274494E-11    0.0000000E+00    0.2466065E-09
    0.0000000E+00   -0.4620146E+01   -0.5703721E-10   -0.1138432E-09   -0.2215270E-13    0.0000000E+00   -0.2284958E-09
    0.1526257E-01   -0.4620146E+01    0.8961720E-11    0.1784576E-10   -0.9064114E-13    0.0000000E+00    0.3596664E-10
    0.5091983E-01   -0.4620146E+01   -0.1126587E-11   -0.2253983E-11   -0.1253875E-13    0.0000000E+00   -0.4551054E-11
    0.1062715E+00   -0.4620146E+01    0.5159935E-12    0.1049046E-11   -0.1020475E-12    0.0000000E+00    0.2121767E-11
    0.1804044E+00   -0.4620146E+01   -0.2858738E-12   -0.5930143E-12   -0.6736769E-13    0.0000000E+00   -0.1188388E-11
    0.2721004E+00   -0.4620146E+01    0.2070521E-12    0.4282955E-12   -0.6384141E-13    0.0000000E+00    0.8571866E-12
    0.3798537E+00   -0.4620146E+01   -0.7723240E-13   -0.1537975E-12   -0.5907016E-13    0.0000000E+00   -0.3195441E-12
    0.5018948E+00   -0.4620146E+01    0.2299704E-12    0.4528306E-12   -0.5950756E-13    0.0000000E+00    0.9138659E-12
    0.6362199E+00   -0.4620146E+01   -0.1090524E-12   -0.2254339E-12   -0.5861205E-13    0.0000000E+00   -0.4462085E-12
    0.7806232E+00   -0.4620146E+01    0.3610624E-13    0.7532893E-13   -0.2552259E-13    0.0000000E+00    0.1384280E-12
    0.9327337E+00   -0.4620146E+01   -0.4667954E-13   -0.7655990E-13   -0.8346502E-13    0.0000000E+00   -0.1622687E-12
    0.1090054E+01   -0.4620146E+01    0.8317012E-13    0.1508002E-12   -0.7193807E-13    0.0000000E+00    0.2965699E-12
    0.1250000E+01   -0.4620146E+01   -0.1542434E-13    0.1827375E-13   -0.1088988E-12    0.0000000E+00   -0.1648252E-13
    0.1409946E+01   -0.4620146E+01    0.2792548E-13    0.1480897E-12   -0.1310030E-12    0.0000000E+00    0.2054540E-12
    0.1567266E+01   -0.4620146E+01    0.1534436E-12    0.5873983E-12   -0.2694173E-12    0.0000000E+00    0.8829837E-12
    0.1719377E+01   -0.4620146E+01   -0.3836206E-13    0.6807573E-12   -0.5772968E-12    0.0000000E+00    0.6156562E-12
    0.1863780E+01   -0.4620146E+01    0.7734206E-13    0.1937290E-11   -0.1234301E-11    0.0000000E+00    0.2094634E-11
    0.1998105E+01   -0.4620146E+01   -0.2213310E-13    0.3878765E-11   -0.2446370E-11    0.0000000E+00    0.3837738E-11
    0.2120146E+01   -0.4620146E+01    0.1187838E-13    0.7760500E-11   -0.4663406E-11    0.0000000E+00    0.7790165E-11
    0.2227900E+01   -0.4620146E+01   -0.1409160E-12    0.1337345E-10   -0.7713970E-11    0.0000000E+00    0.1308550E-10
    0.2319596E+01   -0.4620146E+01    0.1697052E-12    0.2215253E-10   -0.1182412E-10    0.0000000E+00    0.2247775E-10
    0.2393728E+01   -0.4620146E+01   -0.5016722E-12    0.3037339E-10   -0.1654468E-10    0.0000000E+00    0.2941115E-10
    0.2449080E+01   -0.4620146E+01    0.8107501E-12    0.4248179E-10   -0.2064143E-10    0.0000000E+00    0.4409815E-10
    0.2484737E+01   -0.4620146E+01   -0.1030647E-10    0.2760184E-10   -0.2439895E-10    0.0000000E+00    0.6960154E-11
    0.2500000E+01   -0.4620146E+01    0.5793339E-10    0.1674980E-09   -0.2669362E-10    0.0000000E+00    0.2833070E-09
    0.0000000E+00   -0.4498105E+01   -0.5669663E-10   -0.1137042E-09    0.3840506E-13    0.0000000E+00   -0.2276157E-09
    0.1526257E-01   -0.4498105E+01    0.1133207E-10    0.2269349E-10    0.3851290E-13    0.0000000E+00    0.4530829E-10
    0.5091983E-01   -0.4498105E+01   -0.1466196E-11   -0.2921723E-11    0.5856183E-13    0.0000000E+00   -0.5880346E-11
    0.1062715E+00   -0.4498105E+01    0.1057972E-12    0.2320027E-12    0.5862427E-13    0.0000000E+00    0.4129187E-12
    0.1804044E+00   -0.4498105E+01    0.6305680E-13    0.8709191E-13    0.3993213E-13    0.0000000E+00    0.1679593E-12
    0.2721004E+00   -0.4498105E+01    0.1414731E-12    0.2863354E-12    0.3077161E-13    0.0000000E+00    0.6078594E-12
    0.3798537E+00   -0.4498105E+01   -0.9418244E-13   -0.2056590E-12    0.5810187E-13    0.0000000E+00   -0.4237720E-12
    0.5018948E+00   -0.4498105E+01    0.1603086E-12    0.3256654E-12    0.5711972E-13    0.0000000E+00    0.6638268E-12
    0.6362199E+00   -0.4498105E+01   -0.2929997E-13   -0.5170645E-13    0.4287950E-13    0.0000000E+00   -0.1042186E-12
    0.7806232E+00   -0.4498105E+01    0.9743789E-13    0.1981112E-12    0.2251410E-13    0.0000000E+00    0.3824124E-12
    0.9327337E+00   -0.4498105E+01   -0.3813856E-13   -0.5864615E-13    0.6402692E-13    0.0000000E+00   -0.1281085E-12
    0.1090054E+01   -0.4498105E+01   -0.7973162E-13   -0.1399623E-12   -0.4751295E-14    0.0000000E+00   -0.3327006E-12
    0.1250000E+01   -0.4498105E+01    0.6583481E-14    0.1302097E-12   -0.2053211E-13    0.0000000E+00    0.1648417E-12
    0.1409946E+01   -0.4498105E+01    0.2091780E-13    0.3195262E-12   -0.1561140E-12    0.0000000E+00    0.3737571E-12
    0.1567266E+01   -0.4498105E+01   -0.4201083E-13    0.7521279E-12   -0.5863335E-12    0.0000000E+00    0.6563020E-12
    0.1719377E+01   -0.4498105E+01   -0.1671725E-12    0.1878863E-11   -0.1450707E-11    0.0000000E+00    0.1568296E-11
    0.1863780E+01   -0.4498105E+01    0.1465215E-12    0.5606014E-11   -0.3484829E-11    0.0000000E+00    0.5864317E-11
    0.1998105E+01   -0.4498105E+01   -0.1651578E-12    0.1130374E-10   -0.7252945E-11    0.0000000E+00    0.1099034E-10
    0.2120146E+01   -0.4498105E+01    0.2040654E-12    0.2332242E-10   -0.1376921E-10    0.0000000E+00    0.2373820E-10
    0.2227900E+01   -0.4498105E+01   -0.7675820E-13    0.4034679E-10   -0.2319208E-10    0.0000000E+00    0.4014628E-10
    0.2319596E+01   -0.4498105E+01    0.8911180E-13    0.6475984E-10   -0.3590256E-10    0.0000000E+00    0.6495150E-10
    0.2393728E+01   -0.4498105E+01    0.5561623E-14    0.9291351E-10   -0.4975412E-10    0.0000000E+00    0.9293563E-10
    0.2449080E+01   -0.4498105E+01    0.6542597E-12    0.1223236E-09   -0.6320005E-10    0.0000000E+00    0.1236479E-09
    0.2484737E+01   -0.4498105E+01   -0.1073890E-10    0.1214225E-09   -0.7395849E-10    0.0000000E+00    0.9987698E-10
    0.2500000E+01   -0.4498105E+01    0.5441633E-10    0.2621312E-09   -0.7769290E-10    0.0000000E+00    0.3710675E-09
    0.0000000E+00   -0.4363780E+01   -0.5872597E-10   -0.1172613E-09   -0.5195714E-13    0.0000000E+00   -0.2347132E-09
    0.1526257E-01   -0.4363780E+01    0.1129442E-10    0.2258649E-10   -0.1213118E-13    0.0000000E+00    0.4525782E-10
    0.5091983E-01   -0.4363780E+01   -0.1160953E-11   -0.2299871E-11   -0.5223123E-13    0.0000000E+00   -0.4670283E-11
    0.1062715E+00   -0.4363780E+01    0.7923730E-12    0.1605752E-11   -0.2409231E-13    0.0000000E+00    0.3194787E-11
    0.1804044E+00   -0.4363780E+01   -0.4152249E-12   -0.8391996E-12   -0.4807539E-13    0.0000000E+00   -0.1703965E-11
    0.2721004E+00   -0.4363780E+01    0.2143088E-12    0.4404591E-12   -0.1092390E-13    0.0000000E+00    0.9055847E-12
    0.3798537E+00   -0.4363780E+01   -0.1189511E-12   -0.2571523E-12   -0.5430234E-13    0.0000000E+00   -0.5129888E-12
    0.5018948E+00   -0.4363780E+01   -0.4797052E-13   -0.9696328E-13   -0.1120275E-13    0.0000000E+00   -0.1834680E-12
    0.6362199E+00   -0.4363780E+01    0.2141458E-13    0.4214715E-13   -0.4050523E-13    0.0000000E+00    0.7499017E-13
    0.7806232E+00   -0.4363780E+01   -0.1158253E-12   -0.2272069E-12   -0.3339970E-13    0.0000000E+00   -0.4615013E-12
    0.9327337E+00   -0.4363780E+01   -0.8462186E-13   -0.1366699E-12   -0.5728981E-13    0.0000000E+00   -0.2818345E-12
    0.1090054E+01   -0.4363780E+01    0.6574207E-14    0.1020062E-12   -0.9458148E-13    0.0000000E+00    0.8746464E-13
    0.1250000E+01   -0.4363780E+01   -0.1016525E-13    0.2855294E-12   -0.2792478E-12    0.0000000E+00    0.2732752E-12
    0.1409946E+01   -0.4363780E+01   -0.5724197E-13    0.8044273E-12   -0.7975435E-12    0.0000000E+00    0.6857342E-12
    0.1567266E+01   -0.4363780E+01    0.1087704E-12    0.2870856E-11   -0.2014425E-11    0.0000000E+00    0.3104662E-11
    0.1719377E+01   -0.4363780E+01    0.1750480E-13    0.7093684E-11   -0.5107482E-11    0.0000000E+00    0.7147486E-11
    0.1863780E+01   -0.4363780E+01    0.6564375E-14    0.1701738E-10   -0.1164597E-10    0.0000000E+00    0.1701906E-10
    0.1998105E+01   -0.4363780E+01   -0.1385733E-12    0.3684759E-10   -0.2416472E-10    0.0000000E+00    0.3656743E-10
    0.2120146E+01   -0.4363780E+01    0.1405479E-12    0.7330398E-10   -0.4523514E-10    0.0000000E+00    0.7359058E-10
    0.2227900E+01   -0.4363780E+01   -0.3911823E-12    0.1284375E-09   -0.7680195E-10    0.0000000E+00    0.1276518E-09
    0.2319596E+01   -0.4363780E+01    0.2181068E-12    0.2064582E-09   -0.1178295E-09    0.0000000E+00    0.2069298E-09
    0.2393728E+01   -0.4363780E+01   -0.2961354E-12    0.2958202E-09   -0.1640514E-09    0.0000000E+00    0.2952386E-09
    0.2449080E+01   -0.4363780E+01    0.1071879E-11    0.3881035E-09   -0.2082816E-09    0.0000000E+00    0.3902734E-09
    0.2484737E+01   -0.4363780E+01   -0.1029717E-10    0.4353198E-09   -0.2417598E-09    0.0000000E+00    0.4147141E-09
    0.2500000E+01   -0.4363780E+01    0.5600894E-10    0.6010832E-09   -0.2573765E-09    0.0000000E+00    0.7127198E-09
    0.0000000E+00   -0.4219377E+01   -0.5726465E-10   -0.1148878E-09   -0.5212770E-13    0.0000000E+00   -0.2301340E-09
    0.1526257E-01   -0.4219377E+01    0.1096753E-10    0.2193480E-10    0.3649129E-13    0.0000000E+00    0.4396413E-10
    0.5091983E-01   -0.4219377E+01   -0.1644492E-11   -0.3295683E-11   -0.3068644E-14    0.0000000E+00   -0.6558724E-11
    0.1062715E+00   -0.4219377E+01    0.5921420E-12    0.1179484E-11    0.2228773E-13    0.0000000E+00    0.2365311E-11
    0.1804044E+00   -0.4219377E+01   -0.8100731E-14   -0.4596615E-13    0.5052493E-14    0.0000000E+00   -0.1089871E-12
    0.2721004E+00   -0.4219377E+01    0.1059891E-12    0.2316568E-12    0.1867029E-14    0.0000000E+00    0.4416400E-12
    0.3798537E+00   -0.4219377E+01   -0.8137082E-13   -0.1842555E-12    0.1255874E-13    0.0000000E+00   -0.3476173E-12
    0.5018948E+00   -0.4219377E+01    0.5433327E-13    0.1059866E-12    0.1125705E-13    0.0000000E+00    0.2233285E-12
    0.6362199E+00   -0.4219377E+01   -0.1076773E-12   -0.2097666E-12   -0.2438178E-13    0.0000000E+00   -0.4194574E-12
    0.7806232E+00   -0.4219377E+01    0.8220387E-13    0.1993888E-12   -0.1161664E-13    0.0000000E+00    0.3492092E-12
    0.9327337E+00   -0.4219377E+01    0.9958057E-13    0.2823182E-12   -0.7882462E-13    0.0000000E+00    0.4964846E-12
    0.1090054E+01   -0.4219377E+01   -0.4384004E-14    0.2723715E-12   -0.2673118E-12    0.0000000E+00    0.2451592E-12
    0.1250000E+01   -0.4219377E+01    0.2627479E-13    0.1063129E-11   -0.8430784E-12    0.0000000E+00    0.1143931E-11
    0.1409946E+01   -0.4219377E+01   -0.6698268E-13    0.2921602E-11   -0.2499996E-11    0.0000000E+00    0.2781613E-11
    0.1567266E+01   -0.4219377E+01    0.4252750E-13    0.8957529E-11   -0.6883014E-11    0.0000000E+00    0.9034943E-11
    0.1719377E+01   -0.4219377E+01   -0.3952017E-13    0.2344036E-10   -0.1741397E-10    0.0000000E+00    0.2337085E-10
    0.1863780E+01   -0.4219377E+01    0.6680572E-13    0.5692123E-10   -0.4006194E-10    0.0000000E+00    0.5704276E-10
    0.1998105E+01   -0.4219377E+01    0.5616727E-14    0.1239923E-09   -0.8328911E-10    0.0000000E+00    0.1240337E-09
    0.2120146E+01   -0.4219377E+01    0.1282907E-12    0.2440970E-09   -0.1564255E-09    0.0000000E+00    0.2443529E-09
    0.2227900E+01   -0.4219377E+01    0.7336100E-13    0.4316584E-09   -0.2650318E-09    0.0000000E+00    0.4317904E-09
    0.2319596E+01   -0.4219377E+01    0.1204811E-12    0.6881815E-09   -0.4066603E-09    0.0000000E+00    0.6884334E-09
    0.2393728E+01   -0.4219377E+01   -0.4136169E-12    0.9890253E-09   -0.5663254E-09    0.0000000E+00    0.9881816E-09
    0.2449080E+01   -0.4219377E+01    0.1032092E-11    0.1290930E-08   -0.7192809E-09    0.0000000E+00    0.1293034E-08
    0.2484737E+01   -0.4219377E+01   -0.1077300E-10    0.1500910E-08   -0.8360719E-09    0.0000000E+00    0.1479337E-08