 Title="after_elm"
 Variables=x,y,e1,e2,e3,e4,e5
 zone T="           1 ",i=          25 ,j=          25
    0.5000000E+01   -0.5000000E+01   -0.5890288E-10   -0.1175060E-09   -0.4856116E-10    0.0000000E+00   -0.2360112E-09
    0.5015263E+01   -0.5000000E+01    0.1026711E-10    0.1594111E-10   -0.1995293E-10    0.0000000E+00    0.3671336E-10
    0.5050920E+01   -0.5000000E+01   -0.1723787E-10   -0.4977882E-10   -0.2744480E-10    0.0000000E+00   -0.8438448E-10
    0.5106272E+01   -0.5000000E+01    0.5824075E-11   -0.2001437E-10   -0.2662677E-10    0.0000000E+00   -0.8316105E-11
    0.5180404E+01   -0.5000000E+01    0.9345647E-12   -0.5063906E-10   -0.3353016E-10    0.0000000E+00   -0.4889518E-10
    0.5272100E+01   -0.5000000E+01   -0.1921713E-12   -0.7622104E-10   -0.3114223E-10    0.0000000E+00   -0.7655702E-10
    0.5379854E+01   -0.5000000E+01   -0.1925809E-12   -0.9918837E-10   -0.4027007E-10    0.0000000E+00   -0.9958434E-10
    0.5501895E+01   -0.5000000E+01   -0.2169108E-12   -0.1176486E-09   -0.4519147E-10    0.0000000E+00   -0.1180589E-09
    0.5636220E+01   -0.5000000E+01    0.2070596E-11   -0.1233618E-09   -0.5462659E-10    0.0000000E+00   -0.1192162E-09
    0.5780623E+01   -0.5000000E+01   -0.1013376E-11   -0.1295160E-09   -0.6237276E-10    0.0000000E+00   -0.1314853E-09
    0.5932734E+01   -0.5000000E+01    0.1691422E-11   -0.1140236E-09   -0.6728319E-10    0.0000000E+00   -0.1106536E-09
    0.6090054E+01   -0.5000000E+01   -0.1666149E-11   -0.1031600E-09   -0.6599832E-10    0.0000000E+00   -0.1065082E-09
    0.6250000E+01   -0.5000000E+01    0.8155057E-13   -0.7854752E-10   -0.7098041E-10    0.0000000E+00   -0.7836439E-10
    0.6409946E+01   -0.5000000E+01    0.7196941E-12   -0.5661045E-10   -0.7408061E-10    0.0000000E+00   -0.5520182E-10
    0.6567266E+01   -0.5000000E+01    0.1858199E-11   -0.3665947E-10   -0.6260299E-10    0.0000000E+00   -0.3290798E-10
    0.6719377E+01   -0.5000000E+01   -0.1075734E-11   -0.2902017E-10   -0.6734645E-10    0.0000000E+00   -0.3115165E-10
    0.6863780E+01   -0.5000000E+01   -0.1252781E-11   -0.1987928E-10   -0.6082333E-10    0.0000000E+00   -0.2242090E-10
    0.6998105E+01   -0.5000000E+01   -0.7117169E-12   -0.1250699E-10   -0.6395214E-10    0.0000000E+00   -0.1395589E-10
    0.7120146E+01   -0.5000000E+01   -0.8962994E-12   -0.8890182E-11   -0.5590977E-10    0.0000000E+00   -0.1067229E-10
    0.7227900E+01   -0.5000000E+01    0.5255152E-11    0.5820816E-11   -0.6831307E-10    0.0000000E+00    0.1629673E-10
    0.7319596E+01   -0.5000000E+01   -0.9589069E-14   -0.3200970E-11   -0.5404084E-10    0.0000000E+00   -0.3167206E-11
    0.7393728E+01   -0.5000000E+01   -0.1154976E-11   -0.4601954E-11   -0.5104746E-10    0.0000000E+00   -0.6896182E-11
    0.7449080E+01   -0.5000000E+01    0.2070922E-11    0.2352635E-11   -0.6091140E-10    0.0000000E+00    0.6595063E-11
    0.7484737E+01   -0.5000000E+01   -0.1476926E-10   -0.3108909E-10   -0.6256040E-10    0.0000000E+00   -0.6071827E-10
    0.7500000E+01   -0.5000000E+01    0.4526379E-10    0.8842926E-10   -0.1042166E-09    0.0000000E+00    0.1786571E-09
    0.5000000E+01   -0.4984737E+01   -0.5507399E-10   -0.1102782E-09    0.5822403E-10    0.0000000E+00   -0.2212073E-09
    0.5015263E+01   -0.4984737E+01    0.1018557E-10    0.1509131E-10    0.4470866E-10    0.0000000E+00    0.3552317E-10
    0.5050920E+01   -0.4984737E+01   -0.9868998E-12   -0.1963991E-10    0.4427365E-10    0.0000000E+00   -0.2165000E-10
    0.5106272E+01   -0.4984737E+01    0.1160709E-12   -0.3638877E-10    0.4624381E-10    0.0000000E+00   -0.3612515E-10
    0.5180404E+01   -0.4984737E+01   -0.1515415E-11   -0.6395938E-10    0.4215735E-10    0.0000000E+00   -0.6699605E-10
    0.5272100E+01   -0.4984737E+01    0.4380324E-12   -0.8724379E-10    0.3793718E-10    0.0000000E+00   -0.8633395E-10
    0.5379854E+01   -0.4984737E+01   -0.2891732E-12   -0.1152829E-09    0.3404340E-10    0.0000000E+00   -0.1158707E-09
    0.5501895E+01   -0.4984737E+01    0.4778840E-13   -0.1359916E-09    0.2329767E-10    0.0000000E+00   -0.1359303E-09
    0.5636220E+01   -0.4984737E+01    0.7110676E-12   -0.1466108E-09    0.1503101E-10    0.0000000E+00   -0.1451644E-09
    0.5780623E+01   -0.4984737E+01   -0.3680271E-13   -0.1481135E-09    0.7604784E-11    0.0000000E+00   -0.1482063E-09
    0.5932734E+01   -0.4984737E+01   -0.4710123E-12   -0.1372417E-09   -0.1468657E-12    0.0000000E+00   -0.1381732E-09
    0.6090054E+01   -0.4984737E+01    0.1495559E-12   -0.1155898E-09   -0.4610912E-11    0.0000000E+00   -0.1152924E-09
    0.6250000E+01   -0.4984737E+01   -0.2302566E-12   -0.9182575E-10   -0.3199786E-11    0.0000000E+00   -0.9226805E-10
    0.6409946E+01   -0.4984737E+01    0.9404377E-13   -0.6717841E-10   -0.4440390E-11    0.0000000E+00   -0.6700313E-10
    0.6567266E+01   -0.4984737E+01    0.3431569E-12   -0.4618767E-10   -0.9441364E-12    0.0000000E+00   -0.4549939E-10
    0.6719377E+01   -0.4984737E+01    0.2361058E-12   -0.3071749E-10    0.3087163E-11    0.0000000E+00   -0.3023973E-10
    0.6863780E+01   -0.4984737E+01   -0.4616865E-12   -0.2107935E-10    0.2802787E-11    0.0000000E+00   -0.2202803E-10
    0.6998105E+01   -0.4984737E+01   -0.1188867E-12   -0.1309828E-10    0.8128860E-11    0.0000000E+00   -0.1333177E-10
    0.7120146E+01   -0.4984737E+01    0.4562572E-12   -0.7343705E-11    0.6107094E-11    0.0000000E+00   -0.6433945E-11
    0.7227900E+01   -0.4984737E+01   -0.2533053E-12   -0.5949519E-11    0.7833733E-11    0.0000000E+00   -0.6472663E-11
    0.7319596E+01   -0.4984737E+01    0.1179044E-11   -0.1355446E-11    0.9376275E-11    0.0000000E+00    0.1026327E-11
    0.7393728E+01   -0.4984737E+01   -0.1123531E-11   -0.4977168E-11    0.9208652E-11    0.0000000E+00   -0.7231470E-11
    0.7449080E+01   -0.4984737E+01   -0.2152536E-13   -0.2162316E-11    0.1041453E-10    0.0000000E+00   -0.2150147E-11
    0.7484737E+01   -0.4984737E+01   -0.9298906E-11   -0.2043007E-10    0.7252632E-11    0.0000000E+00   -0.3908091E-10
    0.7500000E+01   -0.4984737E+01    0.4869426E-10    0.9550063E-10   -0.3928995E-11    0.0000000E+00    0.1928240E-09
    0.5000000E+01   -0.4949080E+01   -0.5587499E-10   -0.1115310E-09    0.5852981E-10    0.0000000E+00   -0.2236459E-09
    0.5015263E+01   -0.4949080E+01    0.9684342E-11    0.1188153E-10    0.4713140E-10    0.0000000E+00    0.3136205E-10
    0.5050920E+01   -0.4949080E+01   -0.9990624E-12   -0.2704408E-10    0.4826810E-10    0.0000000E+00   -0.2904501E-10
    0.5106272E+01   -0.4949080E+01    0.1063757E-11   -0.4971093E-10    0.4815858E-10    0.0000000E+00   -0.4754589E-10
    0.5180404E+01   -0.4949080E+01   -0.5901914E-13   -0.8631967E-10    0.4312559E-10    0.0000000E+00   -0.8646421E-10
    0.5272100E+01   -0.4949080E+01   -0.4939725E-12   -0.1256792E-09    0.3758511E-10    0.0000000E+00   -0.1266357E-09
    0.5379854E+01   -0.4949080E+01    0.4685828E-13   -0.1621836E-09    0.2922981E-10    0.0000000E+00   -0.1620883E-09
    0.5501895E+01   -0.4949080E+01   -0.1161764E-12   -0.1927853E-09    0.1748337E-10    0.0000000E+00   -0.1930479E-09
    0.5636220E+01   -0.4949080E+01   -0.2300646E-12   -0.2099226E-09    0.4639874E-11    0.0000000E+00   -0.2103495E-09
    0.5780623E+01   -0.4949080E+01    0.3764607E-12   -0.2086891E-09   -0.7141757E-11    0.0000000E+00   -0.2079204E-09
    0.5932734E+01   -0.4949080E+01    0.1711770E-12   -0.1925096E-09   -0.1677877E-10    0.0000000E+00   -0.1921655E-09
    0.6090054E+01   -0.4949080E+01    0.1177477E-12   -0.1637311E-09   -0.2248069E-10    0.0000000E+00   -0.1635156E-09
    0.6250000E+01   -0.4949080E+01   -0.1993313E-12   -0.1296753E-09   -0.2328786E-10    0.0000000E+00   -0.1300401E-09
    0.6409946E+01   -0.4949080E+01   -0.1234292E-12   -0.9556526E-10   -0.2224743E-10    0.0000000E+00   -0.9582736E-10
    0.6567266E+01   -0.4949080E+01   -0.4058763E-12   -0.6712962E-10   -0.1783149E-10    0.0000000E+00   -0.6792581E-10
    0.6719377E+01   -0.4949080E+01    0.7291109E-13   -0.4398020E-10   -0.1447582E-10    0.0000000E+00   -0.4380036E-10
    0.6863780E+01   -0.4949080E+01    0.2850279E-12   -0.2795554E-10   -0.1052895E-10    0.0000000E+00   -0.2740692E-10
    0.6998105E+01   -0.4949080E+01    0.1742572E-12   -0.1785219E-10   -0.8011732E-11    0.0000000E+00   -0.1751900E-10
    0.7120146E+01   -0.4949080E+01   -0.1656692E-12   -0.1200700E-10   -0.5163326E-11    0.0000000E+00   -0.1231598E-10
    0.7227900E+01   -0.4949080E+01   -0.4924343E-13   -0.7786814E-11   -0.5288923E-11    0.0000000E+00   -0.7918962E-11
    0.7319596E+01   -0.4949080E+01    0.1261985E-13   -0.5233713E-11   -0.3930485E-11    0.0000000E+00   -0.5216016E-11
    0.7393728E+01   -0.4949080E+01   -0.9089811E-12   -0.5651835E-11   -0.2035496E-11    0.0000000E+00   -0.7427449E-11
    0.7449080E+01   -0.4949080E+01    0.1209226E-11   -0.5817007E-12   -0.4387252E-11    0.0000000E+00    0.1874338E-11
    0.7484737E+01   -0.4949080E+01   -0.1165540E-10   -0.2585113E-10    0.3819256E-12    0.0000000E+00   -0.4922225E-10
    0.7500000E+01   -0.4949080E+01    0.6080191E-10    0.1191951E-09   -0.9815842E-11    0.0000000E+00    0.2411639E-09
    0.5000000E+01   -0.4893728E+01   -0.6212912E-10   -0.1243608E-09    0.8285382E-10    0.0000000E+00   -0.2499530E-09
    0.5015263E+01   -0.4893728E+01    0.1272770E-10    0.1266500E-10    0.8596970E-10    0.0000000E+00    0.3836967E-10
    0.5050920E+01   -0.4893728E+01   -0.2177444E-11   -0.4712548E-10    0.8634463E-10    0.0000000E+00   -0.5152943E-10
    0.5106272E+01   -0.4893728E+01    0.9463606E-12   -0.8653383E-10    0.8366725E-10    0.0000000E+00   -0.8460431E-10
    0.5180404E+01   -0.4893728E+01   -0.3327582E-12   -0.1476336E-09    0.7808808E-10    0.0000000E+00   -0.1483665E-09
    0.5272100E+01   -0.4893728E+01    0.4258497E-12   -0.2117501E-09    0.6878687E-10    0.0000000E+00   -0.2109114E-09
    0.5379854E+01   -0.4893728E+01    0.6908220E-13   -0.2765391E-09    0.5371964E-10    0.0000000E+00   -0.2763909E-09
    0.5501895E+01   -0.4893728E+01    0.2256966E-12   -0.3278157E-09    0.3332686E-10    0.0000000E+00   -0.3273835E-09
    0.5636220E+01   -0.4893728E+01   -0.1060201E-12   -0.3573409E-09    0.1185953E-10    0.0000000E+00   -0.3575344E-09
    0.5780623E+01   -0.4893728E+01   -0.2213785E-12   -0.3575669E-09   -0.9608167E-11    0.0000000E+00   -0.3580283E-09
    0.5932734E+01   -0.4893728E+01    0.1512165E-12   -0.3284979E-09   -0.2595953E-10    0.0000000E+00   -0.3281960E-09
    0.6090054E+01   -0.4893728E+01   -0.5918551E-13   -0.2796620E-09   -0.3565000E-10    0.0000000E+00   -0.2798016E-09
    0.6250000E+01   -0.4893728E+01    0.1786540E-12   -0.2200875E-09   -0.3752450E-10    0.0000000E+00   -0.2197105E-09
    0.6409946E+01   -0.4893728E+01    0.2811860E-13   -0.1624530E-09   -0.3455878E-10    0.0000000E+00   -0.1624151E-09
    0.6567266E+01   -0.4893728E+01    0.5239573E-13   -0.1129847E-09   -0.2866571E-10    0.0000000E+00   -0.1128660E-09
    0.6719377E+01   -0.4893728E+01   -0.2646025E-12   -0.7577522E-10   -0.2114314E-10    0.0000000E+00   -0.7628113E-10
    0.6863780E+01   -0.4893728E+01    0.1974328E-13   -0.4858600E-10   -0.1509173E-10    0.0000000E+00   -0.4857749E-10
    0.6998105E+01   -0.4893728E+01   -0.1880367E-12   -0.3140578E-10   -0.1048085E-10    0.0000000E+00   -0.3178305E-10
    0.7120146E+01   -0.4893728E+01    0.1090061E-12   -0.1968449E-10   -0.7080239E-11    0.0000000E+00   -0.1944252E-10
    0.7227900E+01   -0.4893728E+01   -0.8690959E-13   -0.1328268E-10   -0.5241637E-11    0.0000000E+00   -0.1347699E-10
    0.7319596E+01   -0.4893728E+01    0.1243654E-12   -0.8726911E-11   -0.3392563E-11    0.0000000E+00   -0.8446222E-11
    0.7393728E+01   -0.4893728E+01   -0.1386674E-12   -0.6816399E-11   -0.1993763E-11    0.0000000E+00   -0.7110979E-11
    0.7449080E+01   -0.4893728E+01    0.1635755E-11   -0.1852559E-11   -0.1859821E-11    0.0000000E+00    0.1417234E-11
    0.7484737E+01   -0.4893728E+01   -0.1064228E-10   -0.2567508E-10   -0.2129814E-11    0.0000000E+00   -0.4698942E-10
    0.7500000E+01   -0.4893728E+01    0.5828132E-10    0.1124583E-09   -0.6687941E-11    0.0000000E+00    0.2286105E-09
    0.5000000E+01   -0.4819596E+01   -0.5744594E-10   -0.1146515E-09    0.1749419E-09    0.0000000E+00   -0.2302645E-09
    0.5015263E+01   -0.4819596E+01    0.9557696E-11   -0.6818661E-11    0.1775082E-09    0.0000000E+00    0.1246338E-10
    0.5050920E+01   -0.4819596E+01   -0.1033221E-11   -0.8852251E-10    0.1753839E-09    0.0000000E+00   -0.9059125E-10
    0.5106272E+01   -0.4819596E+01    0.5289271E-13   -0.1787676E-09    0.1699740E-09    0.0000000E+00   -0.1786640E-09
    0.5180404E+01   -0.4819596E+01    0.1469523E-13   -0.2973149E-09    0.1596947E-09    0.0000000E+00   -0.2973047E-09
    0.5272100E+01   -0.4819596E+01    0.1577169E-12   -0.4298668E-09    0.1394825E-09    0.0000000E+00   -0.4295550E-09
    0.5379854E+01   -0.4819596E+01   -0.1694580E-12   -0.5602024E-09    0.1086670E-09    0.0000000E+00   -0.5605354E-09
    0.5501895E+01   -0.4819596E+01    0.9815889E-13   -0.6640498E-09    0.6804306E-10    0.0000000E+00   -0.6638646E-09
    0.5636220E+01   -0.4819596E+01   -0.5742320E-13   -0.7227615E-09    0.2220725E-10    0.0000000E+00   -0.7228748E-09
    0.5780623E+01   -0.4819596E+01    0.9818398E-13   -0.7224263E-09   -0.2140573E-10    0.0000000E+00   -0.7221973E-09
    0.5932734E+01   -0.4819596E+01   -0.2806432E-12   -0.6659008E-09   -0.5496059E-10    0.0000000E+00   -0.6664676E-09
    0.6090054E+01   -0.4819596E+01    0.4091343E-14   -0.5656254E-09   -0.7452272E-10    0.0000000E+00   -0.5656257E-09
    0.6250000E+01   -0.4819596E+01    0.9120591E-14   -0.4460790E-09   -0.7897815E-10    0.0000000E+00   -0.4460434E-09
    0.6409946E+01   -0.4819596E+01    0.1240645E-12   -0.3285947E-09   -0.7187944E-10    0.0000000E+00   -0.3283511E-09
    0.6567266E+01   -0.4819596E+01    0.1923659E-12   -0.2284233E-09   -0.5942238E-10    0.0000000E+00   -0.2280178E-09
    0.6719377E+01   -0.4819596E+01   -0.4522362E-13   -0.1523435E-09   -0.4532198E-10    0.0000000E+00   -0.1524183E-09
    0.6863780E+01   -0.4819596E+01    0.1086303E-12   -0.9816785E-10   -0.3339359E-10    0.0000000E+00   -0.9795740E-10
    0.6998105E+01   -0.4819596E+01   -0.1432239E-12   -0.6306771E-10   -0.2290416E-10    0.0000000E+00   -0.6335373E-10
    0.7120146E+01   -0.4819596E+01    0.4256650E-12   -0.3943513E-10   -0.1577925E-10    0.0000000E+00   -0.3858277E-10
    0.7227900E+01   -0.4819596E+01   -0.1362848E-12   -0.2679018E-10   -0.1099745E-10    0.0000000E+00   -0.2707414E-10
    0.7319596E+01   -0.4819596E+01    0.1235946E-12   -0.1791488E-10   -0.8102682E-11    0.0000000E+00   -0.1761902E-10
    0.7393728E+01   -0.4819596E+01   -0.3835705E-12   -0.1399755E-10   -0.5637774E-11    0.0000000E+00   -0.1474357E-10
    0.7449080E+01   -0.4819596E+01    0.1253843E-12   -0.1008219E-10   -0.5943280E-11    0.0000000E+00   -0.9842618E-11
    0.7484737E+01   -0.4819596E+01   -0.1064921E-10   -0.3014452E-10   -0.3505500E-11    0.0000000E+00   -0.5143213E-10
    0.7500000E+01   -0.4819596E+01    0.5560318E-10    0.1028739E-09    0.6798151E-11    0.0000000E+00    0.2144007E-09
    0.5000000E+01   -0.4727900E+01   -0.5655563E-10   -0.1131113E-09    0.4196994E-09    0.0000000E+00   -0.2258228E-09
    0.5015263E+01   -0.4727900E+01    0.1202501E-10   -0.3707697E-10    0.4231050E-09    0.0000000E+00   -0.1293071E-10
    0.5050920E+01   -0.4727900E+01   -0.1832910E-11   -0.2072378E-09    0.4209324E-09    0.0000000E+00   -0.2108791E-09
    0.5106272E+01   -0.4727900E+01    0.6136125E-12   -0.4199503E-09    0.4096536E-09    0.0000000E+00   -0.4186457E-09
    0.5180404E+01   -0.4727900E+01   -0.2909691E-12   -0.7006265E-09    0.3839244E-09    0.0000000E+00   -0.7013022E-09
    0.5272100E+01   -0.4727900E+01    0.7097066E-13   -0.1012721E-08    0.3354697E-09    0.0000000E+00   -0.1012546E-08
    0.5379854E+01   -0.4727900E+01   -0.3123866E-13   -0.1318122E-08    0.2613330E-09    0.0000000E+00   -0.1318168E-08
    0.5501895E+01   -0.4727900E+01   -0.1727811E-12   -0.1564216E-08    0.1636839E-09    0.0000000E+00   -0.1564586E-08
    0.5636220E+01   -0.4727900E+01   -0.3759090E-13   -0.1701431E-08    0.5382303E-10    0.0000000E+00   -0.1701484E-08
    0.5780623E+01   -0.4727900E+01   -0.1186995E-13   -0.1701322E-08   -0.5032204E-10    0.0000000E+00   -0.1701355E-08
    0.5932734E+01   -0.4727900E+01    0.1501003E-12   -0.1566117E-08   -0.1314393E-09    0.0000000E+00   -0.1565799E-08
    0.6090054E+01   -0.4727900E+01   -0.5062699E-13   -0.1331775E-08   -0.1776297E-09    0.0000000E+00   -0.1331886E-08
    0.6250000E+01   -0.4727900E+01    0.2279943E-13   -0.1050239E-08   -0.1886445E-09    0.0000000E+00   -0.1050162E-08
    0.6409946E+01   -0.4727900E+01   -0.2199959E-12   -0.7746084E-09   -0.1727527E-09    0.0000000E+00   -0.7750602E-09
    0.6567266E+01   -0.4727900E+01   -0.3736064E-13   -0.5387872E-09   -0.1420415E-09    0.0000000E+00   -0.5388639E-09
    0.6719377E+01   -0.4727900E+01    0.1457840E-12   -0.3581783E-09   -0.1081047E-09    0.0000000E+00   -0.3578687E-09
    0.6863780E+01   -0.4727900E+01   -0.8198924E-13   -0.2317978E-09   -0.7794648E-10    0.0000000E+00   -0.2319686E-09
    0.6998105E+01   -0.4727900E+01   -0.5713225E-13   -0.1479283E-09   -0.5469843E-10    0.0000000E+00   -0.1480288E-09
    0.7120146E+01   -0.4727900E+01   -0.7919835E-13   -0.9502420E-10   -0.3767667E-10    0.0000000E+00   -0.9518614E-10
    0.7227900E+01   -0.4727900E+01   -0.2741842E-12   -0.6295386E-10   -0.2624439E-10    0.0000000E+00   -0.6352242E-10
    0.7319596E+01   -0.4727900E+01    0.2693796E-12   -0.4227053E-10   -0.1910638E-10    0.0000000E+00   -0.4170376E-10
    0.7393728E+01   -0.4727900E+01   -0.2583751E-13   -0.3121064E-10   -0.1492755E-10    0.0000000E+00   -0.3128453E-10
    0.7449080E+01   -0.4727900E+01    0.1052401E-11   -0.2228472E-10   -0.1132830E-10    0.0000000E+00   -0.2017769E-10
    0.7484737E+01   -0.4727900E+01   -0.1062447E-10   -0.4200841E-10   -0.1033738E-10    0.0000000E+00   -0.6321052E-10
    0.7500000E+01   -0.4727900E+01    0.5675547E-10    0.9445922E-10   -0.1109711E-10    0.0000000E+00    0.2082366E-09
    0.5000000E+01   -0.4620146E+01   -0.5723958E-10   -0.1142479E-09    0.1163052E-08    0.0000000E+00   -0.2287270E-09
    0.5015263E+01   -0.4620146E+01    0.8932870E-11   -0.1456987E-09    0.1159886E-08    0.0000000E+00   -0.1276708E-09
    0.5050920E+01   -0.4620146E+01   -0.1127802E-11   -0.5470177E-09    0.1151208E-08    0.0000000E+00   -0.5492936E-09
    0.5106272E+01   -0.4620146E+01    0.5364253E-12   -0.1125951E-08    0.1121815E-08    0.0000000E+00   -0.1124932E-08
    0.5180404E+01   -0.4620146E+01   -0.2834966E-12   -0.1873619E-08    0.1050482E-08    0.0000000E+00   -0.1874269E-08
    0.5272100E+01   -0.4620146E+01    0.1972328E-12   -0.2709790E-08    0.9181781E-09    0.0000000E+00   -0.2709347E-08
    0.5379854E+01   -0.4620146E+01   -0.7909183E-13   -0.3526956E-08    0.7149628E-09    0.0000000E+00   -0.3527130E-08
    0.5501895E+01   -0.4620146E+01    0.2341099E-12   -0.4184036E-08    0.4474650E-09    0.0000000E+00   -0.4183587E-08
    0.5636220E+01   -0.4620146E+01   -0.1139204E-12   -0.4552644E-08    0.1473610E-09    0.0000000E+00   -0.4552849E-08
    0.5780623E+01   -0.4620146E+01    0.3858565E-13   -0.4552147E-08   -0.1379731E-09    0.0000000E+00   -0.4552100E-08
    0.5932734E+01   -0.4620146E+01   -0.5201504E-13   -0.4191436E-08   -0.3599668E-09    0.0000000E+00   -0.4191503E-08
    0.6090054E+01   -0.4620146E+01    0.8048793E-13   -0.3563045E-08   -0.4869132E-09    0.0000000E+00   -0.3562894E-08
    0.6250000E+01   -0.4620146E+01   -0.1376315E-13   -0.2810318E-08   -0.5170900E-09    0.0000000E+00   -0.2810343E-08
    0.6409946E+01   -0.4620146E+01    0.2857242E-13   -0.2071408E-08   -0.4732098E-09    0.0000000E+00   -0.2071369E-08
    0.6567266E+01   -0.4620146E+01    0.1540755E-12   -0.1441158E-08   -0.3896039E-09    0.0000000E+00   -0.1440838E-08
    0.6719377E+01   -0.4620146E+01   -0.4195717E-13   -0.9592800E-09   -0.2967650E-09    0.0000000E+00   -0.9593560E-09
    0.6863780E+01   -0.4620146E+01    0.7882248E-13   -0.6196195E-09   -0.2138995E-09    0.0000000E+00   -0.6194872E-09
    0.6998105E+01   -0.4620146E+01   -0.2634639E-13   -0.3955768E-09   -0.1498555E-09    0.0000000E+00   -0.3956242E-09
    0.7120146E+01   -0.4620146E+01    0.2119232E-13   -0.2538309E-09   -0.1037816E-09    0.0000000E+00   -0.2537793E-09
    0.7227900E+01   -0.4620146E+01   -0.1372990E-12   -0.1672935E-09   -0.7253348E-10    0.0000000E+00   -0.1675797E-09
    0.7319596E+01   -0.4620146E+01    0.1596164E-12   -0.1142344E-09   -0.5190282E-10    0.0000000E+00   -0.1138847E-09
    0.7393728E+01   -0.4620146E+01   -0.4862920E-12   -0.8433548E-10   -0.3961205E-10    0.0000000E+00   -0.8529460E-10
    0.7449080E+01   -0.4620146E+01    0.8083190E-12   -0.6364685E-10   -0.3186559E-10    0.0000000E+00   -0.6202987E-10
    0.7484737E+01   -0.4620146E+01   -0.1033738E-10   -0.7611612E-10   -0.2664320E-10    0.0000000E+00   -0.9673954E-10
    0.7500000E+01   -0.4620146E+01    0.5804903E-10    0.6400425E-10   -0.2803715E-10    0.0000000E+00    0.1796976E-09
    0.5000000E+01   -0.4498105E+01   -0.5669663E-10   -0.1138079E-09    0.3532232E-08    0.0000000E+00   -0.2280303E-09
    0.5015263E+01   -0.4498105E+01    0.1135447E-10   -0.4621399E-09    0.3529675E-08    0.0000000E+00   -0.4393991E-09
    0.5050920E+01   -0.4498105E+01   -0.1449202E-11   -0.1616686E-08    0.3504849E-08    0.0000000E+00   -0.1619612E-08
    0.5106272E+01   -0.4498105E+01    0.9947212E-13   -0.3338658E-08    0.3413381E-08    0.0000000E+00   -0.3338464E-08
    0.5180404E+01   -0.4498105E+01    0.6705179E-13   -0.5548686E-08    0.3196425E-08    0.0000000E+00   -0.5548593E-08
    0.5272100E+01   -0.4498105E+01    0.1370999E-12   -0.8028668E-08    0.2794325E-08    0.0000000E+00   -0.8028395E-08
    0.5379854E+01   -0.4498105E+01   -0.9377642E-13   -0.1044831E-07    0.2175305E-08    0.0000000E+00   -0.1044848E-07
    0.5501895E+01   -0.4498105E+01    0.1573342E-12   -0.1239622E-07    0.1362430E-08    0.0000000E+00   -0.1239590E-07
    0.5636220E+01   -0.4498105E+01   -0.2677818E-13   -0.1348660E-07    0.4485853E-09    0.0000000E+00   -0.1348665E-07
    0.5780623E+01   -0.4498105E+01    0.9536135E-13   -0.1348572E-07   -0.4198710E-09    0.0000000E+00   -0.1348553E-07
    0.5932734E+01   -0.4498105E+01   -0.4046640E-13   -0.1241689E-07   -0.1094967E-08    0.0000000E+00   -0.1241697E-07
    0.6090054E+01   -0.4498105E+01   -0.7935434E-13   -0.1055612E-07   -0.1481612E-08    0.0000000E+00   -0.1055628E-07
    0.6250000E+01   -0.4498105E+01    0.1093028E-13   -0.8325465E-08   -0.1573259E-08    0.0000000E+00   -0.8325430E-08
    0.6409946E+01   -0.4498105E+01    0.1725526E-13   -0.6136650E-08   -0.1439653E-08    0.0000000E+00   -0.6136635E-08
    0.6567266E+01   -0.4498105E+01   -0.3910229E-13   -0.4270392E-08   -0.1184921E-08    0.0000000E+00   -0.4270447E-08
    0.6719377E+01   -0.4498105E+01   -0.1691741E-12   -0.2841979E-08   -0.9024808E-09    0.0000000E+00   -0.2842329E-08
    0.6863780E+01   -0.4498105E+01    0.1469250E-12   -0.1835760E-08   -0.6512782E-09    0.0000000E+00   -0.1835478E-08
    0.6998105E+01   -0.4498105E+01   -0.1624919E-12   -0.1172033E-08   -0.4551951E-09    0.0000000E+00   -0.1172360E-08
    0.7120146E+01   -0.4498105E+01    0.2059009E-12   -0.7516980E-09   -0.3148911E-09    0.0000000E+00   -0.7512660E-09
    0.7227900E+01   -0.4498105E+01   -0.7721326E-13   -0.4948642E-09   -0.2205423E-09    0.0000000E+00   -0.4950344E-09
    0.7319596E+01   -0.4498105E+01    0.8436319E-13   -0.3392508E-09   -0.1585023E-09    0.0000000E+00   -0.3390566E-09
    0.7393728E+01   -0.4498105E+01    0.8028404E-14   -0.2469676E-09   -0.1194600E-09    0.0000000E+00   -0.2469616E-09
    0.7449080E+01   -0.4498105E+01    0.6495508E-12   -0.1919809E-09   -0.9663649E-10    0.0000000E+00   -0.1906707E-09
    0.7484737E+01   -0.4498105E+01   -0.1072976E-10   -0.1859548E-09   -0.8309343E-10    0.0000000E+00   -0.2074195E-09
    0.7500000E+01   -0.4498105E+01    0.5436451E-10   -0.4456957E-10   -0.7609340E-10    0.0000000E+00    0.6384849E-10
    0.5000000E+01   -0.4363780E+01   -0.5858297E-10   -0.1173566E-09    0.1161312E-07    0.0000000E+00   -0.2358572E-09
    0.5015263E+01   -0.4363780E+01    0.1129726E-10   -0.1524163E-08    0.1160595E-07    0.0000000E+00   -0.1501503E-08
    0.5050920E+01   -0.4363780E+01   -0.1143284E-11   -0.5150453E-08    0.1152435E-07    0.0000000E+00   -0.5152770E-08
    0.5106272E+01   -0.4363780E+01    0.7912804E-12   -0.1064973E-07    0.1122467E-07    0.0000000E+00   -0.1064811E-07
    0.5180404E+01   -0.4363780E+01   -0.4131520E-12   -0.1770212E-07    0.1051054E-07    0.0000000E+00   -0.1770301E-07
    0.5272100E+01   -0.4363780E+01    0.2161286E-12   -0.2561288E-07    0.9188581E-08    0.0000000E+00   -0.2561246E-07
    0.5379854E+01   -0.4363780E+01   -0.1244539E-12   -0.3333091E-07    0.7152408E-08    0.0000000E+00   -0.3333113E-07
    0.5501895E+01   -0.4363780E+01   -0.5097996E-13   -0.3954641E-07    0.4479912E-08    0.0000000E+00   -0.3954653E-07
    0.5636220E+01   -0.4363780E+01    0.2397191E-13   -0.4302354E-07    0.1475635E-08    0.0000000E+00   -0.4302346E-07
    0.5780623E+01   -0.4363780E+01   -0.1167458E-12   -0.4302174E-07   -0.1381372E-08    0.0000000E+00   -0.4302199E-07
    0.5932734E+01   -0.4363780E+01   -0.7726464E-13   -0.3961119E-07   -0.3600737E-08    0.0000000E+00   -0.3961135E-07
    0.6090054E+01   -0.4363780E+01    0.6319973E-14   -0.3367465E-07   -0.4872231E-08    0.0000000E+00   -0.3367463E-07
    0.6250000E+01   -0.4363780E+01   -0.9939447E-14   -0.2655929E-07   -0.5173338E-08    0.0000000E+00   -0.2655929E-07
    0.6409946E+01   -0.4363780E+01   -0.5578083E-13   -0.1957679E-07   -0.4734427E-08    0.0000000E+00   -0.1957689E-07
    0.6567266E+01   -0.4363780E+01    0.1043592E-12   -0.1362259E-07   -0.3896734E-08    0.0000000E+00   -0.1362236E-07
    0.6719377E+01   -0.4363780E+01    0.2676473E-13   -0.9065125E-08   -0.2967733E-08    0.0000000E+00   -0.9065070E-08
    0.6863780E+01   -0.4363780E+01    0.8377955E-14   -0.5857159E-08   -0.2141612E-08    0.0000000E+00   -0.5857170E-08
    0.6998105E+01   -0.4363780E+01   -0.1391063E-12   -0.3738145E-08   -0.1497016E-08    0.0000000E+00   -0.3738402E-08
    0.7120146E+01   -0.4363780E+01    0.1399924E-12   -0.2399064E-08   -0.1036233E-08    0.0000000E+00   -0.2398764E-08
    0.7227900E+01   -0.4363780E+01   -0.3903755E-12   -0.1578940E-08   -0.7246874E-09    0.0000000E+00   -0.1579728E-08
    0.7319596E+01   -0.4363780E+01    0.2154142E-12   -0.1082408E-08   -0.5219510E-09    0.0000000E+00   -0.1081956E-08
    0.7393728E+01   -0.4363780E+01   -0.2956593E-12   -0.7885305E-09   -0.3946301E-09    0.0000000E+00   -0.7890893E-09
    0.7449080E+01   -0.4363780E+01    0.1075040E-11   -0.6144425E-09   -0.3172574E-09    0.0000000E+00   -0.6123300E-09
    0.7484737E+01   -0.4363780E+01   -0.1028456E-10   -0.5452767E-09   -0.2748968E-09    0.0000000E+00   -0.5658648E-09
    0.7500000E+01   -0.4363780E+01    0.5591361E-10   -0.3774288E-09   -0.2571334E-09    0.0000000E+00   -0.2652202E-09
    0.5000000E+01   -0.4219377E+01   -0.5726465E-10   -0.1150670E-09    0.4011225E-07    0.0000000E+00   -0.2297755E-09
    0.5015263E+01   -0.4219377E+01    0.1097097E-10   -0.5143216E-08    0.4008431E-07    0.0000000E+00   -0.5121073E-08
    0.5050920E+01   -0.4219377E+01   -0.1647458E-11   -0.1719496E-07    0.3980109E-07    0.0000000E+00   -0.1719831E-07
    0.5106272E+01   -0.4219377E+01    0.5856312E-12   -0.3556762E-07    0.3876614E-07    0.0000000E+00   -0.3556640E-07
    0.5180404E+01   -0.4219377E+01   -0.1037567E-13   -0.5911126E-07    0.3630065E-07    0.0000000E+00   -0.5911135E-07
    0.5272100E+01   -0.4219377E+01    0.1113938E-12   -0.8553238E-07    0.3173391E-07    0.0000000E+00   -0.8553215E-07
    0.5379854E+01   -0.4219377E+01   -0.9577085E-13   -0.1113039E-06    0.2470254E-07    0.0000000E+00   -0.1113041E-06
    0.5501895E+01   -0.4219377E+01    0.5463947E-13   -0.1320600E-06    0.1547175E-07    0.0000000E+00   -0.1320599E-06
    0.5636220E+01   -0.4219377E+01   -0.1088186E-12   -0.1436723E-06    0.5096538E-08    0.0000000E+00   -0.1436725E-06
    0.5780623E+01   -0.4219377E+01    0.8888409E-13   -0.1436650E-06   -0.4770498E-08    0.0000000E+00   -0.1436648E-06
    0.5932734E+01   -0.4219377E+01    0.9065692E-13   -0.1322761E-06   -0.1243567E-07    0.0000000E+00   -0.1322759E-06
    0.6090054E+01   -0.4219377E+01   -0.7071184E-14   -0.1124525E-06   -0.1682668E-07    0.0000000E+00   -0.1124525E-06
    0.6250000E+01   -0.4219377E+01    0.2274244E-13   -0.8869144E-07   -0.1786703E-07    0.0000000E+00   -0.8869139E-07
    0.6409946E+01   -0.4219377E+01   -0.6906891E-13   -0.6537407E-07   -0.1635085E-07    0.0000000E+00   -0.6537423E-07
    0.6567266E+01   -0.4219377E+01    0.4482906E-13   -0.4549160E-07   -0.1345806E-07    0.0000000E+00   -0.4549151E-07
    0.6719377E+01   -0.4219377E+01   -0.4312966E-13   -0.3027216E-07   -0.1024931E-07    0.0000000E+00   -0.3027223E-07
    0.6863780E+01   -0.4219377E+01    0.6724011E-13   -0.1955918E-07   -0.7396239E-08    0.0000000E+00   -0.1955908E-07
    0.6998105E+01   -0.4219377E+01    0.7504421E-14   -0.1248208E-07   -0.5170477E-08    0.0000000E+00   -0.1248205E-07
    0.7120146E+01   -0.4219377E+01    0.1286036E-12   -0.8012092E-08   -0.3578271E-08    0.0000000E+00   -0.8011864E-08
    0.7227900E+01   -0.4219377E+01    0.6928640E-13   -0.5269943E-08   -0.2502423E-08    0.0000000E+00   -0.5269810E-08
    0.7319596E+01   -0.4219377E+01    0.1191021E-12   -0.3615811E-08   -0.1803154E-08    0.0000000E+00   -0.3615584E-08
    0.7393728E+01   -0.4219377E+01   -0.4128206E-12   -0.2632022E-08   -0.1362623E-08    0.0000000E+00   -0.2632825E-08
    0.7449080E+01   -0.4219377E+01    0.1038536E-11   -0.2056970E-08   -0.1094870E-08    0.0000000E+00   -0.2054920E-08
    0.7484737E+01   -0.4219377E+01   -0.1079412E-10   -0.1773603E-08   -0.9487045E-09    0.0000000E+00   -0.1795320E-08