 Title="end_of_rhs"
 Variables=x,y,e1,e2,e3,e4,e5
 zone T="           1 ",i=          25 ,j=          25
    0.0000000E+00    0.0000000E+00   -0.5630496E-10   -0.1126099E-09   -0.7362895E-07    0.0000000E+00   -0.2254197E-09
    0.1526257E-01    0.0000000E+00    0.1124220E-10    0.2264933E-10   -0.1761358E-08    0.0000000E+00    0.4542637E-10
    0.5091983E-01    0.0000000E+00   -0.1197931E-11   -0.2380501E-11   -0.2450069E-08    0.0000000E+00   -0.4852558E-11
    0.1062715E+00    0.0000000E+00    0.3612767E-12    0.7486969E-12   -0.4089389E-08    0.0000000E+00    0.1518965E-11
    0.1804044E+00    0.0000000E+00   -0.1831843E-12   -0.4658685E-12   -0.8086738E-08    0.0000000E+00   -0.8651989E-12
    0.2721004E+00    0.0000000E+00    0.1757299E-12    0.3995573E-12   -0.1858552E-07    0.0000000E+00    0.7557041E-12
    0.3798537E+00    0.0000000E+00   -0.9959004E-13   -0.2286966E-12   -0.4845165E-07    0.0000000E+00   -0.4406500E-12
    0.5018948E+00    0.0000000E+00    0.8667876E-13    0.2251606E-12   -0.1394525E-06    0.0000000E+00    0.3783456E-12
    0.6362199E+00    0.0000000E+00   -0.5573513E-13   -0.1451415E-12   -0.4307813E-06    0.0000000E+00   -0.2426691E-12
    0.7806232E+00    0.0000000E+00   -0.5369885E-14    0.3101673E-14   -0.1388199E-05    0.0000000E+00    0.2262061E-12
    0.9327337E+00    0.0000000E+00   -0.8716250E-14    0.1482912E-13   -0.4539546E-05    0.0000000E+00    0.2538154E-11
    0.1090054E+01    0.0000000E+00   -0.6772379E-12   -0.6667150E-12   -0.1467781E-04    0.0000000E+00    0.2578327E-10
    0.1250000E+01    0.0000000E+00   -0.7631968E-11   -0.7621102E-11   -0.4583411E-04    0.0000000E+00    0.2599400E-09
    0.1409946E+01    0.0000000E+00   -0.7667105E-10   -0.7673547E-10   -0.1354363E-03    0.0000000E+00    0.2351126E-08
    0.1567266E+01    0.0000000E+00   -0.6676050E-09   -0.6675740E-09   -0.3723797E-03    0.0000000E+00    0.1842226E-07
    0.1719377E+01    0.0000000E+00   -0.4918372E-08   -0.4918428E-08   -0.9403250E-03    0.0000000E+00    0.1216549E-06
    0.1863780E+01    0.0000000E+00   -0.2999949E-07   -0.2999943E-07   -0.2160745E-02    0.0000000E+00    0.6642047E-06
    0.1998105E+01    0.0000000E+00   -0.1493681E-06   -0.1493682E-06   -0.4492880E-02    0.0000000E+00    0.2962245E-05
    0.2120146E+01    0.0000000E+00   -0.6021700E-06   -0.6021698E-06   -0.8433428E-02    0.0000000E+00    0.1073185E-04
    0.2227900E+01    0.0000000E+00   -0.1959489E-05   -0.1959489E-05   -0.1429420E-01    0.0000000E+00    0.3158051E-04
    0.2319596E+01    0.0000000E+00   -0.5149974E-05   -0.5149974E-05   -0.2192649E-01    0.0000000E+00    0.7579103E-04
    0.2393728E+01    0.0000000E+00   -0.1096576E-04   -0.1096576E-04   -0.3054470E-01    0.0000000E+00    0.1493470E-03
    0.2449080E+01    0.0000000E+00   -0.1899601E-04   -0.1899601E-04   -0.3879234E-01    0.0000000E+00    0.2435306E-03
    0.2484737E+01    0.0000000E+00   -0.2688166E-04   -0.2688167E-04   -0.4507525E-01    0.0000000E+00    0.3310278E-03
    0.2500000E+01    0.0000000E+00   -0.3113856E-04   -0.3113851E-04   -0.4802171E-01    0.0000000E+00    0.3767754E-03
    0.0000000E+00    0.1526257E-01   -0.5761286E-10   -0.1201733E-09   -0.7354329E-07    0.0000000E+00   -0.2356594E-09
    0.1526257E-01    0.1526257E-01    0.1051822E-10    0.1575998E-10   -0.1692572E-08    0.0000000E+00    0.3697455E-10
    0.5091983E-01    0.1526257E-01   -0.1509631E-11   -0.1054693E-10   -0.2380933E-08    0.0000000E+00   -0.1360310E-10
    0.1062715E+00    0.1526257E-01    0.5540210E-12   -0.1171764E-10   -0.4020036E-08    0.0000000E+00   -0.1065985E-10
    0.1804044E+00    0.1526257E-01   -0.2064345E-12   -0.2643240E-10   -0.8016513E-08    0.0000000E+00   -0.2686420E-10
    0.2721004E+00    0.1526257E-01    0.1305927E-12   -0.6087824E-10   -0.1851273E-07    0.0000000E+00   -0.6060179E-10
    0.3798537E+00    0.1526257E-01   -0.7147178E-13   -0.1637880E-09   -0.4837156E-07    0.0000000E+00   -0.1639459E-09
    0.5018948E+00    0.1526257E-01    0.5536778E-13   -0.4847606E-09   -0.1393520E-06    0.0000000E+00   -0.4846415E-09
    0.6362199E+00    0.1526257E-01   -0.3554241E-13   -0.1546797E-08   -0.4306122E-06    0.0000000E+00   -0.1546844E-08
    0.7806232E+00    0.1526257E-01    0.1108628E-13   -0.5165127E-08   -0.1387807E-05    0.0000000E+00   -0.5164899E-08
    0.9327337E+00    0.1526257E-01   -0.9548481E-13   -0.1756155E-07   -0.4538420E-05    0.0000000E+00   -0.1755915E-07
    0.1090054E+01    0.1526257E-01   -0.6970335E-12   -0.5921912E-07   -0.1467432E-04    0.0000000E+00   -0.5919276E-07
    0.1250000E+01    0.1526257E-01   -0.7633814E-11   -0.1933852E-06   -0.4582336E-04    0.0000000E+00   -0.1931178E-06
    0.1409946E+01    0.1526257E-01   -0.7661159E-10   -0.5989623E-06   -0.1354046E-03    0.0000000E+00   -0.5965356E-06
    0.1567266E+01    0.1526257E-01   -0.6672463E-09   -0.1729299E-05   -0.3722929E-03    0.0000000E+00   -0.1710217E-05
    0.1719377E+01    0.1526257E-01   -0.4916075E-08   -0.4591698E-05   -0.9401059E-03    0.0000000E+00   -0.4465180E-05
    0.1863780E+01    0.1526257E-01   -0.2998556E-07   -0.1110594E-04   -0.2160241E-02    0.0000000E+00   -0.1041204E-04
    0.1998105E+01    0.1526257E-01   -0.1492987E-06   -0.2432879E-04   -0.4491834E-02    0.0000000E+00   -0.2121853E-04
    0.2120146E+01    0.1526257E-01   -0.6018897E-06   -0.4815351E-04   -0.8431463E-02    0.0000000E+00   -0.3682437E-04
    0.2227900E+01    0.1526257E-01   -0.1958576E-05   -0.8611672E-04   -0.1429087E-01    0.0000000E+00   -0.5259107E-04
    0.2319596E+01    0.1526257E-01   -0.5147575E-05   -0.1393074E-03   -0.2192138E-01    0.0000000E+00   -0.5840078E-04
    0.2393728E+01    0.1526257E-01   -0.1096065E-04   -0.2040011E-03   -0.3053758E-01    0.0000000E+00   -0.4375589E-04
    0.2449080E+01    0.1526257E-01   -0.1898716E-04   -0.2703482E-03   -0.3878331E-01    0.0000000E+00   -0.7931417E-05
    0.2484737E+01    0.1526257E-01   -0.2686914E-04   -0.3237875E-03   -0.4506475E-01    0.0000000E+00    0.3397283E-04
    0.2500000E+01    0.1526257E-01   -0.3112406E-04   -0.3497172E-03   -0.4801053E-01    0.0000000E+00    0.5802694E-04
    0.0000000E+00    0.5091983E-01   -0.5729832E-10   -0.1296329E-09   -0.7338283E-07    0.0000000E+00   -0.2443755E-09
    0.1526257E-01    0.5091983E-01    0.1109384E-10    0.4554132E-11   -0.1700843E-08    0.0000000E+00    0.2669388E-10
    0.5091983E-01    0.5091983E-01   -0.1426177E-11   -0.2795949E-10   -0.2387865E-08    0.0000000E+00   -0.3083916E-10
    0.1062715E+00    0.5091983E-01    0.5530877E-12   -0.4160106E-10   -0.4022837E-08    0.0000000E+00   -0.4051376E-10
    0.1804044E+00    0.5091983E-01   -0.2029150E-12   -0.8690065E-10   -0.8009885E-08    0.0000000E+00   -0.8735992E-10
    0.2721004E+00    0.5091983E-01    0.9380495E-13   -0.2033878E-09   -0.1848150E-07    0.0000000E+00   -0.2031888E-09
    0.3798537E+00    0.5091983E-01   -0.6447342E-13   -0.5448665E-09   -0.4826995E-07    0.0000000E+00   -0.5449829E-09
    0.5018948E+00    0.5091983E-01    0.5624956E-13   -0.1613673E-08   -0.1390358E-06    0.0000000E+00   -0.1613590E-08
    0.6362199E+00    0.5091983E-01   -0.3584950E-13   -0.5148231E-08   -0.4296096E-06    0.0000000E+00   -0.5148255E-08
    0.7806232E+00    0.5091983E-01    0.3393072E-14   -0.1719166E-07   -0.1384549E-05    0.0000000E+00   -0.1719146E-07
    0.9327337E+00    0.5091983E-01   -0.5582905E-13   -0.5845135E-07   -0.4527735E-05    0.0000000E+00   -0.5844892E-07
    0.1090054E+01    0.5091983E-01   -0.6774984E-12   -0.1971027E-06   -0.1463974E-04    0.0000000E+00   -0.1970764E-06
    0.1250000E+01    0.5091983E-01   -0.7590750E-11   -0.6436440E-06   -0.4571536E-04    0.0000000E+00   -0.6433778E-06
    0.1409946E+01    0.5091983E-01   -0.7626187E-10   -0.1993402E-05   -0.1350855E-03    0.0000000E+00   -0.1990987E-05
    0.1567266E+01    0.5091983E-01   -0.6641195E-09   -0.5754227E-05   -0.3714154E-03    0.0000000E+00   -0.5735231E-05
    0.1719377E+01    0.5091983E-01   -0.4892930E-08   -0.1527150E-04   -0.9378900E-03    0.0000000E+00   -0.1514554E-04
    0.1863780E+01    0.5091983E-01   -0.2984437E-07   -0.3689497E-04   -0.2155149E-02    0.0000000E+00   -0.3620414E-04
    0.1998105E+01    0.5091983E-01   -0.1485956E-06   -0.8062741E-04   -0.4481246E-02    0.0000000E+00   -0.7753082E-04
    0.2120146E+01    0.5091983E-01   -0.5990556E-06   -0.1588694E-03   -0.8411589E-02    0.0000000E+00   -0.1475897E-03
    0.2227900E+01    0.5091983E-01   -0.1949354E-05   -0.2820606E-03   -0.1425718E-01    0.0000000E+00   -0.2486799E-03
    0.2319596E+01    0.5091983E-01   -0.5123337E-05   -0.4516599E-03   -0.2186971E-01    0.0000000E+00   -0.3711003E-03
    0.2393728E+01    0.5091983E-01   -0.1090904E-04   -0.6534233E-03   -0.3046561E-01    0.0000000E+00   -0.4938605E-03
    0.2449080E+01    0.5091983E-01   -0.1889776E-04   -0.8555256E-03   -0.3869189E-01    0.0000000E+00   -0.5942196E-03
    0.2484737E+01    0.5091983E-01   -0.2674263E-04   -0.1015003E-02   -0.4495853E-01    0.0000000E+00   -0.6587506E-03
    0.2500000E+01    0.5091983E-01   -0.3097751E-04   -0.1091380E-02   -0.4789737E-01    0.0000000E+00   -0.6853515E-03
    0.0000000E+00    0.1062715E+00   -0.5787089E-10   -0.1472424E-09   -0.7274501E-07    0.0000000E+00   -0.2639077E-09
    0.1526257E-01    0.1062715E+00    0.1069933E-10   -0.1524457E-10   -0.1683959E-08    0.0000000E+00    0.6296519E-11
    0.5091983E-01    0.1062715E+00   -0.1553938E-11   -0.5493506E-10   -0.2365113E-08    0.0000000E+00   -0.5804201E-10
    0.1062715E+00    0.1062715E+00    0.5916336E-12   -0.8720996E-10   -0.3985951E-08    0.0000000E+00   -0.8601137E-10
    0.1804044E+00    0.1062715E+00   -0.2159282E-12   -0.1793553E-09   -0.7938476E-08    0.0000000E+00   -0.1798473E-09
    0.2721004E+00    0.1062715E+00    0.9232625E-13   -0.4210291E-09   -0.1831927E-07    0.0000000E+00   -0.4208193E-09
    0.3798537E+00    0.1062715E+00   -0.5088146E-13   -0.1127139E-08   -0.4784979E-07    0.0000000E+00   -0.1127241E-08
    0.5018948E+00    0.1062715E+00    0.5123211E-13   -0.3338763E-08   -0.1378293E-06    0.0000000E+00   -0.3338667E-08
    0.6362199E+00    0.1062715E+00   -0.3000091E-13   -0.1065137E-07   -0.4258858E-06    0.0000000E+00   -0.1065138E-07
    0.7806232E+00    0.1062715E+00    0.8462638E-14   -0.3556880E-07   -0.1372552E-05    0.0000000E+00   -0.3556857E-07
    0.9327337E+00    0.1062715E+00   -0.8766431E-13   -0.1209333E-06   -0.4488509E-05    0.0000000E+00   -0.1209309E-06
    0.1090054E+01    0.1062715E+00   -0.6835847E-12   -0.4077962E-06   -0.1451292E-04    0.0000000E+00   -0.4077704E-06
    0.1250000E+01    0.1062715E+00   -0.7463396E-11   -0.1331663E-05   -0.4531933E-04    0.0000000E+00   -0.1331401E-05
    0.1409946E+01    0.1062715E+00   -0.7492746E-10   -0.4124179E-05   -0.1339152E-03    0.0000000E+00   -0.4121803E-05
    0.1567266E+01    0.1062715E+00   -0.6526522E-09   -0.1190452E-04   -0.3681978E-03    0.0000000E+00   -0.1188584E-04
    0.1719377E+01    0.1062715E+00   -0.4808515E-08   -0.3159075E-04   -0.9297650E-03    0.0000000E+00   -0.3146685E-04
    0.1863780E+01    0.1062715E+00   -0.2932953E-07   -0.7630167E-04   -0.2136479E-02    0.0000000E+00   -0.7562204E-04
    0.1998105E+01    0.1062715E+00   -0.1460322E-06   -0.1666532E-03   -0.4442425E-02    0.0000000E+00   -0.1636065E-03
    0.2120146E+01    0.1062715E+00   -0.5887212E-06   -0.3280433E-03   -0.8338719E-02    0.0000000E+00   -0.3169437E-03
    0.2227900E+01    0.1062715E+00   -0.1915726E-05   -0.5814537E-03   -0.1413367E-01    0.0000000E+00   -0.5486022E-03
    0.2319596E+01    0.1062715E+00   -0.5034954E-05   -0.9288996E-03   -0.2168025E-01    0.0000000E+00   -0.8496071E-03
    0.2393728E+01    0.1062715E+00   -0.1072085E-04   -0.1340055E-02   -0.3020168E-01    0.0000000E+00   -0.1182984E-02
    0.2449080E+01    0.1062715E+00   -0.1857175E-04   -0.1749518E-02   -0.3835671E-01    0.0000000E+00   -0.1492268E-02
    0.2484737E+01    0.1062715E+00   -0.2628129E-04   -0.2070949E-02   -0.4456906E-01    0.0000000E+00   -0.1720202E-02
    0.2500000E+01    0.1062715E+00   -0.3044311E-04   -0.2224371E-02   -0.4748244E-01    0.0000000E+00   -0.1824605E-02
    0.0000000E+00    0.1804044E+00   -0.5760618E-10   -0.1671300E-09   -0.7121598E-07    0.0000000E+00   -0.2820219E-09
    0.1526257E-01    0.1804044E+00    0.1104859E-10   -0.3878691E-10   -0.1649371E-08    0.0000000E+00   -0.1664582E-10
    0.5091983E-01    0.1804044E+00   -0.1479921E-11   -0.8911847E-10   -0.2316173E-08    0.0000000E+00   -0.9214597E-10
    0.1062715E+00    0.1804044E+00    0.6387537E-12   -0.1456572E-09   -0.3902831E-08    0.0000000E+00   -0.1443661E-09
    0.1804044E+00    0.1804044E+00   -0.1996129E-12   -0.2977502E-09   -0.7772413E-08    0.0000000E+00   -0.2981599E-09
    0.2721004E+00    0.1804044E+00    0.5681612E-13   -0.6998808E-09   -0.1793483E-07    0.0000000E+00   -0.6997743E-09
    0.3798537E+00    0.1804044E+00   -0.4367511E-13   -0.1873117E-08   -0.4684440E-07    0.0000000E+00   -0.1873213E-08
    0.5018948E+00    0.1804044E+00    0.4039650E-13   -0.5548713E-08   -0.1349318E-06    0.0000000E+00   -0.5548655E-08
    0.6362199E+00    0.1804044E+00   -0.2700610E-13   -0.1770131E-07   -0.4169311E-06    0.0000000E+00   -0.1770134E-07
    0.7806232E+00    0.1804044E+00   -0.7839531E-14   -0.5911123E-07   -0.1343691E-05    0.0000000E+00   -0.5911103E-07
    0.9327337E+00    0.1804044E+00   -0.5621052E-13   -0.2009769E-06   -0.4394126E-05    0.0000000E+00   -0.2009746E-06
    0.1090054E+01    0.1804044E+00   -0.6363175E-12   -0.6777092E-06   -0.1420774E-04    0.0000000E+00   -0.6776844E-06
    0.1250000E+01    0.1804044E+00   -0.7156832E-11   -0.2213063E-05   -0.4436636E-04    0.0000000E+00   -0.2212812E-05
    0.1409946E+01    0.1804044E+00   -0.7181860E-10   -0.6853852E-05   -0.1310993E-03    0.0000000E+00   -0.6851571E-05
    0.1567266E+01    0.1804044E+00   -0.6254985E-09   -0.1978347E-04   -0.3604553E-03    0.0000000E+00   -0.1976553E-04
    0.1719377E+01    0.1804044E+00   -0.4608422E-08   -0.5249676E-04   -0.9102140E-03    0.0000000E+00   -0.5237774E-04
    0.1863780E+01    0.1804044E+00   -0.2810902E-07   -0.1267838E-03   -0.2091553E-02    0.0000000E+00   -0.1261308E-03
    0.1998105E+01    0.1804044E+00   -0.1399553E-06   -0.2768554E-03   -0.4349010E-02    0.0000000E+00   -0.2739272E-03
    0.2120146E+01    0.1804044E+00   -0.5642224E-06   -0.5447555E-03   -0.8163374E-02    0.0000000E+00   -0.5340843E-03
    0.2227900E+01    0.1804044E+00   -0.1836005E-05   -0.9649605E-03   -0.1383647E-01    0.0000000E+00   -0.9333668E-03
    0.2319596E+01    0.1804044E+00   -0.4825432E-05   -0.1540181E-02   -0.2122437E-01    0.0000000E+00   -0.1463901E-02
    0.2393728E+01    0.1804044E+00   -0.1027471E-04   -0.2219473E-02   -0.2956661E-01    0.0000000E+00   -0.2068327E-02
    0.2449080E+01    0.1804044E+00   -0.1779891E-04   -0.2894431E-02   -0.3755015E-01    0.0000000E+00   -0.2646826E-02
    0.2484737E+01    0.1804044E+00   -0.2518763E-04   -0.3423188E-02   -0.4363188E-01    0.0000000E+00   -0.3085538E-02
    0.2500000E+01    0.1804044E+00   -0.2917626E-04   -0.3675230E-02   -0.4648400E-01    0.0000000E+00   -0.3290363E-02
    0.0000000E+00    0.2721004E+00   -0.5758815E-10   -0.1911833E-09   -0.6832137E-07    0.0000000E+00   -0.3061598E-09
    0.1526257E-01    0.2721004E+00    0.1073780E-10   -0.6674189E-10   -0.1581983E-08    0.0000000E+00   -0.4507751E-10
    0.5091983E-01    0.2721004E+00   -0.1506095E-11   -0.1277247E-09   -0.2221725E-08    0.0000000E+00   -0.1308265E-09
    0.1062715E+00    0.2721004E+00    0.5942504E-12   -0.2113762E-09   -0.3743940E-08    0.0000000E+00   -0.2102019E-09
    0.1804044E+00    0.2721004E+00   -0.2025856E-12   -0.4306577E-09   -0.7456152E-08    0.0000000E+00   -0.4311316E-09
    0.2721004E+00    0.2721004E+00    0.9574729E-13   -0.1012669E-08   -0.1720554E-07    0.0000000E+00   -0.1012465E-08
    0.3798537E+00    0.2721004E+00   -0.5798227E-13   -0.2710320E-08   -0.4494016E-07    0.0000000E+00   -0.2710422E-08
    0.5018948E+00    0.2721004E+00    0.6066168E-13   -0.8028864E-08   -0.1294473E-06    0.0000000E+00   -0.8028747E-08
    0.6362199E+00    0.2721004E+00   -0.2700969E-13   -0.2561338E-07   -0.3999851E-06    0.0000000E+00   -0.2561338E-07
    0.7806232E+00    0.2721004E+00    0.6351735E-14   -0.8553261E-07   -0.1289078E-05    0.0000000E+00   -0.8553240E-07
    0.9327337E+00    0.2721004E+00   -0.7554350E-13   -0.2908092E-06   -0.4215531E-05    0.0000000E+00   -0.2908071E-06
    0.1090054E+01    0.2721004E+00   -0.6018631E-12   -0.9806299E-06   -0.1363028E-04    0.0000000E+00   -0.9806071E-06
    0.1250000E+01    0.2721004E+00   -0.6588619E-11   -0.3202250E-05   -0.4256314E-04    0.0000000E+00   -0.3202018E-05
    0.1409946E+01    0.2721004E+00   -0.6610901E-10   -0.9917336E-05   -0.1257709E-03    0.0000000E+00   -0.9915228E-05
    0.1567266E+01    0.2721004E+00   -0.5756672E-09   -0.2862592E-04   -0.3458051E-03    0.0000000E+00   -0.2860933E-04
    0.1719377E+01    0.2721004E+00   -0.4241425E-08   -0.7595922E-04   -0.8732194E-03    0.0000000E+00   -0.7584919E-04
    0.1863780E+01    0.2721004E+00   -0.2587052E-07   -0.1834386E-03   -0.2006545E-02    0.0000000E+00   -0.1828346E-03
    0.1998105E+01    0.2721004E+00   -0.1288099E-06   -0.4005300E-03   -0.4172250E-02    0.0000000E+00   -0.3978200E-03
    0.2120146E+01    0.2721004E+00   -0.5192901E-06   -0.7879520E-03   -0.7831583E-02    0.0000000E+00   -0.7780703E-03
    0.2227900E+01    0.2721004E+00   -0.1689794E-05   -0.1395310E-02   -0.1327410E-01    0.0000000E+00   -0.1366036E-02
    0.2319596E+01    0.2721004E+00   -0.4441155E-05   -0.2226067E-02   -0.2036173E-01    0.0000000E+00   -0.2155345E-02
    0.2393728E+01    0.2721004E+00   -0.9456480E-05   -0.3206119E-02   -0.2836491E-01    0.0000000E+00   -0.3065910E-02
    0.2449080E+01    0.2721004E+00   -0.1638149E-04   -0.4178806E-02   -0.3602399E-01    0.0000000E+00   -0.3949017E-02
    0.2484737E+01    0.2721004E+00   -0.2318180E-04   -0.4940017E-02   -0.4185854E-01    0.0000000E+00   -0.4626563E-02
    0.2500000E+01    0.2721004E+00   -0.2685279E-04   -0.5302616E-02   -0.4459474E-01    0.0000000E+00   -0.4945278E-02
    0.0000000E+00    0.3798537E+00   -0.5778885E-10   -0.2140413E-09   -0.6368654E-07    0.0000000E+00   -0.3302550E-09
    0.1526257E-01    0.3798537E+00    0.1098897E-10   -0.9271756E-10   -0.1474863E-08    0.0000000E+00   -0.7057406E-10
    0.5091983E-01    0.3798537E+00   -0.1416243E-11   -0.1651210E-09   -0.2071082E-08    0.0000000E+00   -0.1679172E-09
    0.1062715E+00    0.3798537E+00    0.5313635E-12   -0.2755997E-09   -0.3490153E-08    0.0000000E+00   -0.2745019E-09
    0.1804044E+00    0.3798537E+00   -0.2161124E-12   -0.5603114E-09   -0.6950499E-08    0.0000000E+00   -0.5607780E-09
    0.2721004E+00    0.3798537E+00    0.1050599E-12   -0.1317841E-08   -0.1603854E-07    0.0000000E+00   -0.1317646E-08
    0.3798537E+00    0.3798537E+00   -0.6162022E-13   -0.3526929E-08   -0.4189157E-07    0.0000000E+00   -0.3527059E-08
    0.5018948E+00    0.3798537E+00    0.4561782E-13   -0.1044802E-07   -0.1206658E-06    0.0000000E+00   -0.1044791E-07
    0.6362199E+00    0.3798537E+00   -0.4538240E-13   -0.3333073E-07   -0.3728505E-06    0.0000000E+00   -0.3333078E-07
    0.7806232E+00    0.3798537E+00    0.7467857E-14   -0.1113037E-06   -0.1201628E-05    0.0000000E+00   -0.1113035E-06
    0.9327337E+00    0.3798537E+00   -0.4663521E-13   -0.3784302E-06   -0.3929552E-05    0.0000000E+00   -0.3784284E-06
    0.1090054E+01    0.3798537E+00   -0.5041489E-12   -0.1276095E-05   -0.1270561E-04    0.0000000E+00   -0.1276075E-05
    0.1250000E+01    0.3798537E+00   -0.5729394E-11   -0.4167090E-05   -0.3967568E-04    0.0000000E+00   -0.4166887E-05
    0.1409946E+01    0.3798537E+00   -0.5743919E-10   -0.1290541E-04   -0.1172387E-03    0.0000000E+00   -0.1290357E-04
    0.1567266E+01    0.3798537E+00   -0.5002257E-09   -0.3725069E-04   -0.3223458E-03    0.0000000E+00   -0.3723619E-04
    0.1719377E+01    0.3798537E+00   -0.3685494E-08   -0.9884400E-04   -0.8139807E-03    0.0000000E+00   -0.9874767E-04
    0.1863780E+01    0.3798537E+00   -0.2247949E-07   -0.2386977E-03   -0.1870422E-02    0.0000000E+00   -0.2381685E-03
    0.1998105E+01    0.3798537E+00   -0.1119259E-06   -0.5211545E-03   -0.3889207E-02    0.0000000E+00   -0.5187777E-03
    0.2120146E+01    0.3798537E+00   -0.4512233E-06   -0.1025138E-02   -0.7300293E-02    0.0000000E+00   -0.1016463E-02
    0.2227900E+01    0.3798537E+00   -0.1468301E-05   -0.1814988E-02   -0.1237360E-01    0.0000000E+00   -0.1789262E-02
    0.2319596E+01    0.3798537E+00   -0.3859023E-05   -0.2894864E-02   -0.1898040E-01    0.0000000E+00   -0.2832653E-02
    0.2393728E+01    0.3798537E+00   -0.8216957E-05   -0.4168039E-02   -0.2644066E-01    0.0000000E+00   -0.4044592E-02
    0.2449080E+01    0.3798537E+00   -0.1423426E-04   -0.5430807E-02   -0.3358016E-01    0.0000000E+00   -0.5228337E-02
    0.2484737E+01    0.3798537E+00   -0.2014321E-04   -0.6418433E-02   -0.3901892E-01    0.0000000E+00   -0.6142103E-02
    0.2500000E+01    0.3798537E+00   -0.2333301E-04   -0.6888697E-02   -0.4156951E-01    0.0000000E+00   -0.6573608E-02
    0.0000000E+00    0.5018948E+00   -0.5716306E-10   -0.2321763E-09   -0.5718907E-07    0.0000000E+00   -0.3463988E-09
    0.1526257E-01    0.5018948E+00    0.1073313E-10   -0.1145678E-09   -0.1324285E-08    0.0000000E+00   -0.9292716E-10
    0.5091983E-01    0.5018948E+00   -0.1543646E-11   -0.1956368E-09   -0.1859727E-08    0.0000000E+00   -0.1987491E-09
    0.1062715E+00    0.5018948E+00    0.5945655E-12   -0.3270831E-09   -0.3133931E-08    0.0000000E+00   -0.3258996E-09
    0.1804044E+00    0.5018948E+00   -0.2080424E-12   -0.6646905E-09   -0.6241290E-08    0.0000000E+00   -0.6651429E-09
    0.2721004E+00    0.5018948E+00    0.1336260E-12   -0.1563591E-08   -0.1440216E-07    0.0000000E+00   -0.1563343E-08
    0.3798537E+00    0.5018948E+00   -0.7779259E-13   -0.4184649E-08   -0.3761761E-07    0.0000000E+00   -0.4184783E-08
    0.5018948E+00    0.5018948E+00    0.5434484E-13   -0.1239642E-07   -0.1083552E-06    0.0000000E+00   -0.1239630E-07
    0.6362199E+00    0.5018948E+00   -0.3283409E-13   -0.3954636E-07   -0.3348115E-06    0.0000000E+00   -0.3954639E-07
    0.7806232E+00    0.5018948E+00    0.6191151E-14   -0.1320601E-06   -0.1079035E-05    0.0000000E+00   -0.1320600E-06
    0.9327337E+00    0.5018948E+00   -0.6236320E-13   -0.4490017E-06   -0.3528652E-05    0.0000000E+00   -0.4490002E-06
    0.1090054E+01    0.5018948E+00   -0.4188164E-12   -0.1514067E-05   -0.1140936E-04    0.0000000E+00   -0.1514050E-05
    0.1250000E+01    0.5018948E+00   -0.4619380E-11   -0.4944185E-05   -0.3562789E-04    0.0000000E+00   -0.4944021E-05
    0.1409946E+01    0.5018948E+00   -0.4633639E-10   -0.1531205E-04   -0.1052778E-03    0.0000000E+00   -0.1531055E-04
    0.1567266E+01    0.5018948E+00   -0.4033263E-09   -0.4419718E-04   -0.2894595E-03    0.0000000E+00   -0.4418536E-04
    0.1719377E+01    0.5018948E+00   -0.2971849E-08   -0.1172755E-03   -0.7309369E-03    0.0000000E+00   -0.1171969E-03
    0.1863780E+01    0.5018948E+00   -0.1812666E-07   -0.2832026E-03   -0.1679598E-02    0.0000000E+00   -0.2827704E-03
    0.1998105E+01    0.5018948E+00   -0.9025314E-07   -0.6182993E-03   -0.3492422E-02    0.0000000E+00   -0.6163555E-03
    0.2120146E+01    0.5018948E+00   -0.3638505E-06   -0.1216140E-02   -0.6555504E-02    0.0000000E+00   -0.1209035E-02
    0.2227900E+01    0.5018948E+00   -0.1183986E-05   -0.2152897E-02   -0.1111122E-01    0.0000000E+00   -0.2131796E-02
    0.2319596E+01    0.5018948E+00   -0.3111780E-05   -0.3433245E-02   -0.1704399E-01    0.0000000E+00   -0.3382143E-02
    0.2393728E+01    0.5018948E+00   -0.6625865E-05   -0.4942193E-02   -0.2374315E-01    0.0000000E+00   -0.4840654E-02
    0.2449080E+01    0.5018948E+00   -0.1147800E-04   -0.6438163E-02   -0.3015428E-01    0.0000000E+00   -0.6271440E-02
    0.2484737E+01    0.5018948E+00   -0.1624278E-04   -0.7607724E-02   -0.3503818E-01    0.0000000E+00   -0.7380007E-02
    0.2500000E+01    0.5018948E+00   -0.1881491E-04   -0.8164475E-02   -0.3732856E-01    0.0000000E+00   -0.7904729E-02
    0.0000000E+00    0.6362199E+00   -0.5782030E-10   -0.2432933E-09   -0.4908174E-07    0.0000000E+00   -0.3594106E-09
    0.1526257E-01    0.6362199E+00    0.1105006E-10   -0.1259557E-09   -0.1136600E-08    0.0000000E+00   -0.1037763E-09
    0.5091983E-01    0.6362199E+00   -0.1445148E-11   -0.2123638E-09   -0.1596177E-08    0.0000000E+00   -0.2152773E-09
    0.1062715E+00    0.6362199E+00    0.5860210E-12   -0.3559121E-09   -0.2689731E-08    0.0000000E+00   -0.3546731E-09
    0.1804044E+00    0.6362199E+00   -0.2035200E-12   -0.7230887E-09   -0.5356570E-08    0.0000000E+00   -0.7234925E-09
    0.2721004E+00    0.6362199E+00    0.5400092E-13   -0.1701241E-08   -0.1236048E-07    0.0000000E+00   -0.1701124E-08
    0.3798537E+00    0.6362199E+00   -0.4719352E-13   -0.4552543E-08   -0.3228485E-07    0.0000000E+00   -0.4552645E-08
    0.5018948E+00    0.6362199E+00    0.6109914E-13   -0.1348644E-07   -0.9299427E-07    0.0000000E+00   -0.1348634E-07
    0.6362199E+00    0.6362199E+00   -0.4446327E-13   -0.4302367E-07   -0.2873470E-06    0.0000000E+00   -0.4302373E-07
    0.7806232E+00    0.6362199E+00   -0.8751633E-14   -0.1436721E-06   -0.9260659E-06    0.0000000E+00   -0.1436720E-06
    0.9327337E+00    0.6362199E+00   -0.2808178E-13   -0.4884821E-06   -0.3028413E-05    0.0000000E+00   -0.4884810E-06
    0.1090054E+01    0.6362199E+00   -0.3015428E-12   -0.1647198E-05   -0.9791915E-05    0.0000000E+00   -0.1647185E-05
    0.1250000E+01    0.6362199E+00   -0.3394087E-11   -0.5378923E-05   -0.3057710E-04    0.0000000E+00   -0.5378801E-05
    0.1409946E+01    0.6362199E+00   -0.3411959E-10   -0.1665842E-04   -0.9035306E-04    0.0000000E+00   -0.1665730E-04
    0.1567266E+01    0.6362199E+00   -0.2970906E-09   -0.4808328E-04   -0.2484243E-03    0.0000000E+00   -0.4807444E-04
    0.1719377E+01    0.6362199E+00   -0.2188980E-08   -0.1275864E-03   -0.6273156E-03    0.0000000E+00   -0.1275276E-03
    0.1863780E+01    0.6362199E+00   -0.1335149E-07   -0.3080981E-03   -0.1441490E-02    0.0000000E+00   -0.3077740E-03
    0.1998105E+01    0.6362199E+00   -0.6647752E-07   -0.6726343E-03   -0.2997319E-02    0.0000000E+00   -0.6711741E-03
    0.2120146E+01    0.6362199E+00   -0.2680004E-06   -0.1322946E-02   -0.5626163E-02    0.0000000E+00   -0.1317598E-02
    0.2227900E+01    0.6362199E+00   -0.8720857E-06   -0.2341785E-02   -0.9536039E-02    0.0000000E+00   -0.2325869E-02
    0.2319596E+01    0.6362199E+00   -0.2292036E-05   -0.3734036E-02   -0.1462775E-01    0.0000000E+00   -0.3695415E-02
    0.2393728E+01    0.6362199E+00   -0.4880396E-05   -0.5374432E-02   -0.2037721E-01    0.0000000E+00   -0.5297552E-02
    0.2449080E+01    0.6362199E+00   -0.8454324E-05   -0.7000241E-02   -0.2587948E-01    0.0000000E+00   -0.6873819E-02
    0.2484737E+01    0.6362199E+00   -0.1196391E-04   -0.8270971E-02   -0.3007103E-01    0.0000000E+00   -0.8098120E-02
    0.2500000E+01    0.6362199E+00   -0.1385844E-04   -0.8875775E-02   -0.3203673E-01    0.0000000E+00   -0.8678522E-02
    0.0000000E+00    0.7806232E+00   -0.5717503E-10   -0.2421425E-09   -0.4000043E-07    0.0000000E+00   -0.3573888E-09
    0.1526257E-01    0.7806232E+00    0.1069283E-10   -0.1266450E-09   -0.9262565E-09    0.0000000E+00   -0.1051792E-09
    0.5091983E-01    0.7806232E+00   -0.1584153E-11   -0.2125904E-09   -0.1300809E-08    0.0000000E+00   -0.2157730E-09
    0.1062715E+00    0.7806232E+00    0.5632629E-12   -0.3559812E-09   -0.2192012E-08    0.0000000E+00   -0.3548087E-09
    0.1804044E+00    0.7806232E+00   -0.2121306E-12   -0.7230855E-09   -0.4365434E-08    0.0000000E+00   -0.7235318E-09
    0.2721004E+00    0.7806232E+00    0.9464835E-13   -0.1701077E-08   -0.1007349E-07    0.0000000E+00   -0.1700870E-08
    0.3798537E+00    0.7806232E+00   -0.3176057E-13   -0.4552273E-08   -0.2631132E-07    0.0000000E+00   -0.4552339E-08
    0.5018948E+00    0.7806232E+00    0.4902254E-13   -0.1348579E-07   -0.7578805E-07    0.0000000E+00   -0.1348572E-07
    0.6362199E+00    0.7806232E+00   -0.2790815E-13   -0.4302155E-07   -0.2341809E-06    0.0000000E+00   -0.4302156E-07
    0.7806232E+00    0.7806232E+00    0.1872034E-13   -0.1436651E-06   -0.7547213E-06    0.0000000E+00   -0.1436650E-06
    0.9327337E+00    0.7806232E+00   -0.3315048E-13   -0.4884584E-06   -0.2468083E-05    0.0000000E+00   -0.4884577E-06
    0.1090054E+01    0.7806232E+00   -0.2087491E-12   -0.1647118E-05   -0.7980174E-05    0.0000000E+00   -0.1647109E-05
    0.1250000E+01    0.7806232E+00   -0.2246751E-11   -0.5378662E-05   -0.2491960E-04    0.0000000E+00   -0.5378579E-05
    0.1409946E+01    0.7806232E+00   -0.2267470E-10   -0.1665760E-04   -0.7363556E-04    0.0000000E+00   -0.1665684E-04
    0.1567266E+01    0.7806232E+00   -0.1973041E-09   -0.4808085E-04   -0.2024598E-03    0.0000000E+00   -0.4807487E-04
    0.1719377E+01    0.7806232E+00   -0.1453886E-08   -0.1275795E-03   -0.5112471E-03    0.0000000E+00   -0.1275396E-03
    0.1863780E+01    0.7806232E+00   -0.8867877E-08   -0.3080787E-03   -0.1174779E-02    0.0000000E+00   -0.3078584E-03
    0.1998105E+01    0.7806232E+00   -0.4415345E-07   -0.6725794E-03   -0.2442743E-02    0.0000000E+00   -0.6715843E-03
    0.2120146E+01    0.7806232E+00   -0.1780020E-06   -0.1322792E-02   -0.4585187E-02    0.0000000E+00   -0.1319138E-02
    0.2227900E+01    0.7806232E+00   -0.5792268E-06   -0.2341378E-02   -0.7771642E-02    0.0000000E+00   -0.2330476E-02
    0.2319596E+01    0.7806232E+00   -0.1522337E-05   -0.3733086E-02   -0.1192127E-01    0.0000000E+00   -0.3706563E-02
    0.2393728E+01    0.7806232E+00   -0.3241489E-05   -0.5372536E-02   -0.1660694E-01    0.0000000E+00   -0.5319616E-02
    0.2449080E+01    0.7806232E+00   -0.5615241E-05   -0.6997068E-02   -0.2109117E-01    0.0000000E+00   -0.6909884E-02
    0.2484737E+01    0.7806232E+00   -0.7946260E-05   -0.8266563E-02   -0.2450720E-01    0.0000000E+00   -0.8147206E-02